Cpptraj Generated Restart                                                       
40267  5.0000000E+00
  41.3419488  45.6984475  74.1019480  42.3413355  45.4518251  74.2752515
  40.8322385  44.9216648  74.4028231  41.0121002  46.4512578  74.6796269
  41.0385327  45.8936225  72.6541307  41.3892054  44.9991927  72.0977869
  39.5238304  46.1481335  72.5082729  39.3011918  46.9641179  73.2487464
  39.2700422  46.4477350  71.4802148  38.5924746  45.0180689  72.8101148
  39.0654762  43.8650131  73.0317534  37.3173278  45.0853880  72.6550851
  41.7382685  47.0711788  72.1094028  41.6800221  48.2148516  72.5512040
  42.2873498  46.8395209  70.9285030  42.1624156  45.9100340  70.5937996
  42.6786845  47.7571815  69.8566487  42.5815494  48.7782686  70.2556892
  44.2388859  47.5658900  69.6001328  44.7462285  47.7666047  70.5384779
  44.3682184  46.5843816  69.2494071  44.8305448  48.6448166  68.5817647
  44.0675929  49.3595394  67.8559138  46.0371519  48.7772748  68.4452670
  41.8256586  47.5730886  68.5689033  41.0077666  48.4152201  68.3120109
  41.9720918  46.5197456  67.8197369  42.7166592  45.9350854  68.1228349
  41.4313393  46.2550969  66.4678766  41.5853976  47.2615967  66.1127143
  42.4323601  45.2926827  65.6984893  42.2301788  45.4463366  64.6695566
  43.9082735  45.7330862  65.9608480  44.4835869  45.5913293  65.0481835
  43.8689139  46.7942157  66.3064439  44.4129691  45.1215400  66.7260103
  42.1942767  43.8492918  66.0216707  42.4723960  43.5683504  67.0648625
  41.1487546  43.4920146  65.9411104  42.9391610  42.9535419  64.9885076
  42.6185272  41.9073672  65.2273761  42.5786469  43.1656144  63.9653013
  44.0978584  42.9856422  65.1095039  39.9545177  45.8726411  66.4129966
  39.2937357  46.2225462  65.4572974  39.3833786  45.3862618  67.4821656
  39.9075554  45.0093341  68.2356988  37.9251229  45.2075387  67.5860289
  37.5699964  44.8581515  66.5821596  37.5728567  44.1415657  68.6152840
  38.1772115  44.1868685  69.5004674  36.5710682  44.3480981  69.0292133
  37.6552316  42.7423790  68.0468106  36.4371396  42.0712558  67.8690668
  35.4691041  42.4822800  68.1667511  36.5015132  40.7490708  67.3193958
  35.5092915  40.2181418  67.1546907  37.6965293  40.1922204  66.8369024
  37.6909571  39.1883787  66.4146797  38.8966973  40.8896732  66.9696294
  39.8875783  40.5345771  66.5552966  38.9117801  42.1003572  67.7442119
  39.9007521  42.5427981  67.9103186  37.0823028  46.5520817  67.7534647
  35.8193500  46.4859922  67.5897519  37.6876575  47.7127379  68.0075099
  38.6545360  47.6525328  67.8815189  37.0877791  49.1038031  68.2144265
  36.4117879  49.1068898  69.0862759  38.1434808  50.1672171  68.5952353
  38.9189693  50.1103960  67.8352687  37.5327579  51.0930770  68.5284887
  38.8077762  49.9735825  70.0184958  38.0252085  50.0443815  70.7862885
  39.2834519  49.0016074  70.0798704  39.9926992  50.9258172  70.0760463
  40.7041504  50.7819673  69.2281581  39.6179972  51.9490100  70.0168958
  40.6950096  50.7141634  71.3642286  40.6487491  49.7792474  71.7365829
  41.5201325  51.4882005  71.9803818  41.6365186  52.7297422  71.7696800
  40.9363809  53.1594100  71.2072429  42.5349382  53.1547543  71.7972514
  42.2947040  50.9182585  72.7673295  42.3139111  49.8676326  72.8691671
  43.0159913  51.5244513  73.1971563  36.2517182  49.4613202  66.9627583
  36.6344914  49.2641951  65.7856942  35.1071324  50.1235551  67.2380823
  34.7828344  50.1125184  68.1941055  34.4244847  50.9688591  66.1934651
  34.1514956  50.3583639  65.2617191  33.0985177  51.5712080  66.7419409
  33.2924654  52.2498999  67.5915647  32.6099003  52.2528217  66.0518791
  31.9802799  50.5931008  67.1003451  31.6536082  50.1120430  66.1168986
  32.2827683  49.8847894  67.7887035  30.8193249  51.4145492  67.7925158
  30.2243662  50.6879669  68.3503343  31.3715726  51.9698972  68.6125920
  29.9095106  52.2532969  66.8767611  30.3969792  53.0849067  66.3795940
  29.5289289  51.5607824  66.1117755  28.7897995  53.0182275  67.5959724
  29.0384741  53.5441870  68.4272309  28.3217445  53.7048117  66.9380138
  27.9516251  52.4476925  67.9114042  35.3915057  52.0067566  65.6613732
  36.4059023  52.3237525  66.3060425  35.1981424  52.3486097  64.3779918
  34.3856644  51.9585361  63.8808808  35.9468217  53.4046071  63.6391235
  35.3996071  53.4328174  62.7110029  35.8186264  54.7288794  64.3556094
  34.8056640  54.7491291  64.7434298  36.4696164  54.8390288  65.2275147
  35.8904897  55.9662054  63.4777362  36.7402330  56.0436760  62.8376637
  34.9833746  55.9519252  62.8037262  35.8034657  57.3136459  64.2414901
  35.0538812  57.1211710  65.0146074  36.7281206  57.6715725  64.6568333
  35.3623485  58.4058659  63.3771705  34.4575396  58.8573907  63.5427510
  36.1739059  59.0552410  62.5545231  35.7781322  60.1042725  61.9142714
  34.7573481  60.2649592  61.8745382  36.3991800  60.5161753  61.1466366
  37.4210401  58.7846512  62.3013447  37.6894620  57.8556002  62.6414745
  37.9176186  59.3649464  61.6532213  37.3766175  53.0920225  63.2002788
  37.9693342  53.8692757  62.4740439  37.8993646  51.9296784  63.6048886
  37.3292860  51.3440954  64.1467386  39.2869115  51.4968816  63.5188522
  39.9293934  52.3165502  63.2369407  39.5739769  50.9149907  64.9427350
  39.4665782  51.7320087  65.6377970  38.8922001  50.1634030  65.2096715
  41.0659590  50.4792401  65.0552177  41.0507666  49.8065293  65.9092082
  41.3073931  49.9801828  64.1235781  42.0302186  51.6402544  65.1914736
  42.1301668  51.9205261  64.1253129  41.6024550  52.5354858  65.6880041
  43.2965418  51.2135782  65.8524141  43.2909795  50.5016262  66.5997428
  44.4722828  51.7182464  65.6333917  44.8313569  52.5722304  64.6895014
  44.1662521  52.9023305  64.0525753  45.7000552  53.0295275  64.8040207
  45.3994333  51.2759358  66.3920269  45.0654166  50.6514547  67.1006339
  46.3531201  51.7029147  66.3280494  39.3852931  50.4786315  62.2950664
  38.6191890  49.4651214  62.2802417  40.3455513  50.7336057  61.4097704
  40.7375066  51.6947828  61.4038572  40.4898899  50.0981353  60.0997767
  39.7721354  49.3025220  59.9112752  40.1768693  51.1673146  59.0034522
  39.2852985  51.6270725  59.2843606  40.9472850  51.9363385  59.0318037
  40.2037999  50.6718026  57.5024773  41.2807281  50.4549872  57.1841720
  39.5099476  49.3315573  57.3375675  38.4851900  49.4234008  57.6230791
  39.5451837  48.9899564  56.2876923  40.0499805  48.6070926  57.9767160
  39.4226517  51.6261617  56.6572379  39.9475388  52.5252890  56.2897430
  39.2005143  51.1279735  55.7954124  38.4446340  51.9848893  57.0774286
  41.9202806  49.5405025  60.0489367  42.7432605  49.9704160  59.2830037
  42.2542192  48.5963364  60.9239795  41.5369541  48.2827602  61.5895812
  43.6056581  47.9929532  61.0522987  44.3001366  48.7862569  61.2340934
  43.6352991  46.8890743  62.1060566  42.8207791  46.2292900  61.8762295
  44.9216911  46.0920796  62.2987226  45.2775579  45.7835763  61.2976378
  45.6777578  46.6468705  62.9172734  44.5536466  45.2705014  62.9015371
  43.4523756  47.5215825  63.3199267  42.4626993  47.5792456  63.4706055
  43.9944706  47.3971314  59.7123265  43.3671283  46.5192306  59.1692741
  45.2556250  47.5565219  59.2490130  45.9030742  48.2449577  59.5730345
  45.8606689  46.8373116  58.1392994  45.1473260  46.2296041  57.5243905
  46.4581305  47.8373083  57.0912005  47.2879563  48.4060864  57.5614462
  47.0482749  47.0700129  55.9106196  47.7814529  46.3504271  56.2085816
  46.2314663  46.6071593  55.3200079  47.6276312  47.6571088  55.2514850
  45.3304820  48.8495849  56.6563691  44.4322731  48.3284953  56.2802654
  45.0583230  49.4835831  57.5357199  45.7769757  49.8872721  55.6023019
  45.7783429  49.4583333  54.5556496  45.0634888  50.7360610  55.6027470
  46.7918565  50.1304089  55.8655866  46.9555385  45.8992671  58.6621893
  48.0371937  46.3397771  59.0314919  46.7557167  44.5641587  58.5302282
  45.9441768  44.1523838  58.0725309  47.8011426  43.5507260  58.7741753
  48.4642755  43.9985553  59.5042087  47.1739530  42.2460740  59.3276556
  46.5347857  41.7595846  58.5639862  48.0123120  41.5828060  59.5687257
  46.3835222  42.4295693  60.6175645  46.9624998  43.0446867  61.3031799
  45.4341752  42.9134172  60.2900827  45.8265028  40.9268848  61.4451021
  44.7528868  40.0985286  60.2964616  44.0832032  39.3463721  60.6782784
  43.9901702  40.8225426  60.0798984  45.2446090  39.7849329  59.3639122
  48.6261174  43.3079624  57.4951593  48.3939985  42.3035224  56.8102184
  49.5264726  44.2362235  57.1156347  49.5272929  45.0772244  57.6856711
  50.3309822  44.3376672  55.8831717  49.7346729  43.9659863  55.0241298
  50.6750765  45.7460347  55.5061042  51.3515176  45.6963444  54.6700214
  49.7093188  46.1936879  55.2866213  51.3244092  46.5243047  56.6088545
  51.7864483  47.6993359  56.3616472  51.2673794  46.1179838  57.7652572
  51.4635873  43.3190659  55.8009541  52.5421186  43.6510595  55.2580799
  51.2986640  42.1054879  56.2735883  50.4490725  41.8184671  56.6491584
  52.2594223  41.0435086  56.3294976  53.1563096  41.5259858  56.5491397
  51.8739939  40.0357089  57.4557213  51.0010693  39.5008533  57.2024883
  52.7476737  39.4143621  57.5758989  51.4878628  40.6016376  58.8308035
  50.5447289  41.1874132  58.9254296  51.2707064  39.5195620  59.8997087
  50.9670682  39.9826293  60.7889202  50.4100148  38.8278395  59.6422445
  52.1616339  38.9091470  60.2040476  52.5982004  41.5228554  59.3231078
  52.3731782  41.7917280  60.3234564  53.6458383  41.1925412  59.2088031
  52.4763107  42.4666370  58.7058025  52.4830525  40.3345395  55.0146798
  51.5674238  40.0145197  54.2731914  53.7557094  39.9579236  54.8691389
  54.3949015  40.3546953  55.6019485  54.3690237  39.3026142  53.6784112
  54.3170805  39.9486114  52.8001866  55.8756737  39.1202488  53.9268841
  56.3597341  38.9491201  53.0099996  56.3824671  40.0070036  54.3431270
  56.3108260  37.8851857  54.7512629  56.4640210  36.5783992  54.2965852
  56.8984893  35.8483523  55.3762172  57.1975371  34.8098719  55.3620825
  56.9672280  36.6310177  56.5044785  57.2971119  36.3975290  57.4163127
  56.6589095  37.8892757  56.0976175  56.6943117  38.7816491  56.7772307
  53.5977995  38.0528353  53.1522289  52.7681802  37.4929136  53.8800301
  53.9130450  37.5183116  51.9290435  54.7860558  38.1338388  50.8568599
  55.7351728  37.7242062  51.1718910  54.7960649  39.2375112  50.9642531
  54.1541448  37.7248909  49.5472035  54.7773912  37.6434229  48.7051107
  53.3057123  38.3813955  49.3257311  53.5386951  36.3437598  49.8900041
  54.2269272  35.5329330  49.6366483  52.6325304  36.0395367  49.3208697
  53.1860803  36.3984670  51.3888949  52.1634714  36.6089893  51.5252980
  53.4989150  35.0962180  52.0953741  54.5709292  34.4997411  51.9338788
  52.4785113  34.4444498  52.6521766  51.5351082  34.8626780  52.6012191
  52.8060809  33.2875874  53.4979600  51.9867973  32.6479265  53.4713386
  53.6068024  32.7153000  53.1489671  53.1225117  33.5264255  54.9894282
  53.3261321  32.5310804  55.7688931  53.0764503  34.7819647  55.4341860
  52.9152235  35.5692032  54.8049409  53.3011020  34.9361977  56.8717462
  54.2426509  34.4986151  57.1887058  53.5018662  36.4409748  57.0479818
  52.5193026  36.9332988  56.9760438  53.9410573  36.4468174  58.0333734
  54.1977211  36.7554122  56.2730623  52.1368016  34.4131194  57.8028603
  52.3515278  34.0866177  59.0009452  50.8787874  34.2440148  57.3203698
  50.8003323  34.5345942  56.3099509  49.6968922  33.5702303  57.9509881
  49.4538770  32.6767342  57.3987517  49.9879141  33.3111538  58.9443776
  48.2815400  34.1972527  57.9772355  47.5102569  33.8521305  58.8439307
  48.1070071  35.2946444  57.2237605  48.7680318  35.5166943  56.5439501
  46.9327699  36.1250580  57.1386647  46.6363234  36.6519692  58.0185231
  47.1600028  37.2715059  56.0817507  47.3314804  36.8009651  55.1643368
  46.2623533  37.7925217  55.9152003  48.3894971  38.1874391  56.4183877
  48.3037917  38.8161415  57.2935882  49.2752411  37.4697975  56.5117316
  48.6517228  39.2018104  55.2396593  47.8340530  39.9231295  55.2139919
  49.5047209  39.8199058  55.4697716  48.8057526  38.6960710  53.7674113
  47.8354239  38.2180688  53.5681111  48.9938688  39.5148200  53.1252136
  49.8853147  37.8134611  53.5352331  49.7784287  37.0895371  54.2246199
  49.8475793  37.3343937  52.6598072  50.8235847  38.2240108  53.7701961
  45.6868263  35.2997390  56.8812548  44.7866409  35.3581695  57.7035749
  45.6158373  34.4053325  55.9132444  46.3821432  34.2695590  55.2819540
  44.3890388  33.6835780  55.6605835  43.4841246  34.2114692  55.8048516
  44.3649520  33.2709305  54.1595091  45.1416814  32.5111896  53.8905808
  43.0774665  32.5389939  53.7999500  42.2389455  33.2477014  54.0347981
  42.9812761  32.3713824  52.7038455  42.9354929  31.5553048  54.2697041
  44.6406819  34.3821599  53.3193581  43.9047704  34.9685106  53.1483094
  44.2781604  32.3720792  56.5182334  43.2372071  32.1510482  57.0644985
  45.3359464  31.5618083  56.7352159  46.2538116  31.8378032  56.4034507
  45.1728153  30.2444115  57.3614515  44.1455876  29.9417081  57.3009644
  45.9700295  29.2181030  56.4576320  47.0544595  29.4243624  56.5151905
  45.8626238  28.2340994  56.9057329  45.4251284  29.3168500  54.9572335
  44.3401525  29.1192047  55.0679126  45.5290119  30.3293657  54.5477549
  46.0342005  28.3996600  53.9653305  45.7577376  28.6621169  52.9886711
  47.1210244  28.2563573  54.0590335  45.4053126  27.0030285  54.1396393
  45.6947672  26.4839671  55.1103989  44.3519528  27.1927162  53.9978950
  45.8810539  26.0583270  53.1081234  46.8437496  25.8300335  53.2672133
  45.4238981  25.1788540  53.2312990  45.5550227  26.2946883  52.1987824
  45.5818111  30.1745400  58.8255803  45.6443168  29.0477080  59.4528580
  45.7660913  31.3227772  59.4835090  45.6859513  32.1893771  58.9781999
  46.1164976  31.3853979  60.9051979  45.5925953  30.5445943  61.3768249
  47.6666945  31.2301121  61.1533954  48.0723911  30.3761531  60.5763698
  48.2807341  32.0542970  60.7591547  48.1597077  31.1721731  62.5540705
  47.6728188  31.9232210  63.1733945  47.8205175  30.1432832  62.8886351
  49.7299120  31.3206595  62.7082048  49.9416702  32.3912297  62.5375447
  50.1127303  31.0534050  63.7236470  50.4647896  30.4408074  61.6521502
  50.1350685  29.4726487  61.6002686  51.2787812  30.9784576  60.7259331
  51.5837402  30.2443781  59.6713962  51.2171452  29.3270682  59.6647036
  52.3183732  30.5478010  59.0550291  51.6983270  32.1712580  60.7384353
  51.4279223  32.8170077  61.4985552  52.2912349  32.4830056  59.9609777
  45.5876031  32.6312259  61.6297881  44.7475998  32.5385279  62.5339932
  45.8119566  33.8282482  61.1772478  46.4758555  33.9466401  60.4602005
  45.3791308  35.0410134  61.8938126  45.5713438  34.8601798  62.9103252
  46.2289440  36.2332758  61.5007815  45.9078564  36.5888595  60.4490068
  46.0638053  37.0693064  62.1960528  47.7723852  36.0594536  61.4706972
  48.3402259  35.2396290  62.4664814  47.9097862  34.8663888  63.3767142
  49.7734866  34.9939470  62.4513477  50.3281175  34.5560330  63.2359370
  50.5231347  35.4291823  61.3606953  51.8438414  35.2706966  61.3945737
  52.1518389  35.1833339  60.4804008  49.9395281  36.2220501  60.3543619
  50.4964828  36.6596008  59.5387852  48.5508299  36.5127879  60.3889645
  48.1296961  37.0876729  59.6196536  43.8754821  35.3274517  61.7213999
  43.1813510  35.6741379  62.7114013  43.2983861  35.1704992  60.4708624
  43.9181631  35.0663439  59.6342653  41.8307561  35.1873386  60.1831851
  41.4366979  36.1686798  60.3546875  41.5963250  34.9430503  58.6969199
  41.9758299  35.8372067  58.2229777  42.1123931  34.0488351  58.4465158
  40.1415480  34.7965510  58.2716783  39.6516150  34.1879698  59.0113190
  39.4604031  36.2036167  58.3312100  39.6306309  36.6800119  59.2878245
  39.9275090  36.8782509  57.5332446  38.3904835  36.0786092  58.0873148
  39.8004044  34.4291311  56.8268412  40.1191550  35.2326647  56.1216169
  40.3789920  33.6004900  56.5380923  38.7713920  34.1087604  56.6614288
  41.0141742  34.1867148  61.0057526  40.1298475  34.7157149  61.7252742
  41.2863829  32.8588914  61.1191968  42.1335676  32.0893798  60.1895425
  43.0744918  32.6327476  60.2075432  41.7163981  32.0098620  59.2485331
  42.2181122  30.7605880  60.8514654  43.0141575  30.7835246  61.6081837
  42.4403273  29.9929461  60.1348550  40.9844344  30.5481159  61.6321164
  41.2585694  29.9632740  62.5361285  40.2899436  30.0668136  60.9731397
  40.6403778  31.9875286  62.0709927  39.5890657  32.1593225  61.7846524
  40.7907125  32.3569363  63.5688206  39.9545113  31.9230969  64.3817357
  41.7819036  33.1150062  64.0242214  42.5456785  33.4203143  63.4603861
  41.6370124  33.7349768  65.3524900  41.3153032  32.9538022  66.0892432
  43.0280352  34.3643165  65.8124685  43.0830608  35.4334111  65.4815576
  43.0426907  34.3280936  66.8884245  43.8739177  33.8194876  65.4389055
  40.6774313  34.8612424  65.4744442  39.8648486  34.9329829  66.4104614
  40.7873479  35.8102408  64.5735422  41.4244329  35.6388588  63.8502811
  39.9981365  36.9976960  64.5912673  40.0443314  37.4736877  65.5366761
  40.5331312  37.9970130  63.6049509  40.6788642  37.5799613  62.6268924
  39.5683294  39.2416670  63.3616628  39.1689713  39.6178739  64.2951416
  39.9816495  40.1055589  62.8202710  38.7664593  39.0135853  62.7855033
  41.9341740  38.5316765  63.9855100  41.8941696  39.3351063  64.7324560
  42.5261975  37.6684537  64.4417987  42.8485512  39.0120198  62.8650762
  42.4366670  38.8232221  61.8731426  42.9090137  40.0392578  62.9908556
  43.8846843  38.6106032  62.9678590  38.5335971  36.6724841  64.4678927
  37.7485152  37.1336534  65.2491455  38.1618416  35.9165998  63.4227951
  38.8477124  35.6041212  62.7513001  36.8933396  35.3299358  63.2137751
  36.1513109  36.1094941  63.2010572  36.7855027  34.4744520  61.8714895
  37.6183268  33.7102583  61.8734390  35.4379105  33.7387952  61.7553222
  35.5013669  33.2706537  60.7587127  35.3014276  32.9731771  62.4736357
  34.4941993  34.3610000  61.7226842  36.8925794  35.4632118  60.7792944
  37.6297925  36.2249508  60.8864929  37.3117839  34.9107186  59.8160410
  35.9740849  36.0175057  60.5330337  36.2588808  34.5273239  64.3703898
  35.0847868  34.6579454  64.6877359  37.1050052  33.8007050  65.0329297
  38.0457323  33.7367745  64.6741772  36.7792767  32.9983265  66.2670064
  35.8142651  32.4063134  66.0680240  37.9344808  32.0770477  66.7747786
  38.2931755  31.5123487  65.9372557  38.7892006  32.6657986  67.0807539
  37.3994699  31.2704162  67.9412471  37.2042191  31.8704426  68.7866063
  36.4432961  30.8968868  67.6190574  38.3602252  30.2002670  68.2799933
  39.1972216  30.7244566  68.7483465  37.7243140  29.6421346  68.9536638
  38.8346353  29.3930297  67.1296153  39.8513905  29.5270711  66.8412563
  38.1857238  28.4670138  66.4163052  36.9824049  28.0844799  66.6898322
  36.7578943  28.1429714  67.6453410  36.6018408  27.3180254  66.1852600
  38.7465560  27.8517418  65.4369622  39.6255367  28.1738518  65.0599797
  38.3587390  27.0282115  64.9727868  36.4247349  33.8823743  67.4176005
  35.3598473  33.7165349  67.9664529  37.1944690  34.8895649  67.7749702
  38.1321579  34.8617069  67.3185625  36.8677154  36.0479050  68.7085723
  36.7053313  35.5869299  69.6480872  38.1629041  36.9613761  68.6838092
  39.0184889  36.3688592  68.9578599  38.3641591  37.1980932  67.6706590
  38.0448181  38.2654010  69.4825176  38.8620925  38.8670491  69.1910244
  37.1732072  38.7694780  69.1310007  37.9820137  38.1401171  70.9953550
  37.8437774  36.9905626  71.5237117  38.1246514  39.2133988  71.7031534
  35.5169970  36.7737678  68.2752522  34.6864042  37.1730242  69.1442094
  35.2967058  37.0195036  66.9771894  35.9483487  36.6679380  66.2607997
  34.0484619  37.6044704  66.3921223  33.9050684  38.6366364  66.7894093
  34.1370900  37.7735789  64.8635055  33.2559332  38.2803945  64.4664386
  35.0155554  38.3366893  64.6125673  34.2773342  36.8006897  64.3792752
  32.8247462  36.7656775  66.7859827  31.7960761  37.3793447  67.1788460
  32.8603611  35.4203441  66.6970296  33.7203348  35.0951304  66.2612647
  31.7125872  34.5184428  66.9353214  30.8024452  34.9287051  66.5581174
  31.9518004  33.1363417  66.2222094  33.0196941  32.9498566  66.3719435
  30.9703770  31.9570920  66.5220560  29.9902320  32.2863923  66.2356310
  31.3103329  31.0309156  66.0912231  30.9276295  31.7940932  67.6385991
  31.8368078  33.4340235  64.7049541  30.8881326  34.0415326  64.5960426
  32.6807505  34.1016213  64.4236159  31.8067403  32.3013061  63.6775681
  32.5050745  31.4724454  64.0551835  30.8189597  31.8875345  63.6000499
  32.1080441  32.5659767  62.6999457  31.4713341  34.4612593  68.4423827
  30.3075347  34.5218589  68.9212537  32.5113335  34.5139899  69.2521419
  33.4573985  34.5691872  68.8137178  32.4303812  34.3855378  70.7511552
  31.6111878  33.7094936  71.0863670  33.7862179  33.8905921  71.3357456
  34.6439371  34.5874452  71.0507218  33.6994758  33.9599727  72.4078815
  34.1167284  32.5115431  70.8879413  33.3431083  31.9060735  71.2481007
  34.0427580  32.4992141  69.7611805  35.5060782  32.1028646  71.3341558
  35.6706095  31.0922979  70.9726933  36.2446291  32.7549647  70.8494247
  35.6959089  32.2131961  72.8390787  35.6043003  33.2953847  73.1239688
  34.9259445  31.4799590  73.2398587  37.0544084  31.7882282  73.2832542
  37.7730799  32.2430213  72.7165330  37.1826876  32.0026459  74.2859449
  37.1977970  30.8093747  73.3663056  31.9438379  35.7419222  71.3742394
  31.5042995  35.7229754  72.4981013  32.1054883  36.8748859  70.7202534
  32.7666093  36.8735022  69.9579587  31.5195081  38.2076647  71.0228314
  31.3394728  38.2938298  72.0783880  32.6043877  39.2792899  70.6562856
  32.9550334  39.1866311  69.6303562  32.2308954  40.2535984  70.8324251
  33.8881552  39.1056957  71.4518013  33.7226480  39.1226431  72.5229648
  34.1804470  38.0329625  71.3697837  35.0118497  40.0695282  71.0767648
  35.9165941  39.8037860  71.5986693  35.2794810  39.8929017  70.0575008
  34.7071636  41.5231487  71.3594852  33.7389680  41.7773832  71.5370190
  35.5583899  42.4783891  71.6361548  36.8660996  42.3525819  71.5478314
  37.3313929  41.4932692  71.4385099  37.4037927  43.1385581  71.7532974
  35.2523346  43.6822787  71.9376692  34.2222362  43.9240863  71.9939772
  35.9563645  44.3756887  71.9512211  30.2111859  38.5586919  70.3106188
  29.7094488  39.6589976  70.4377438  29.5842063  37.5469715  69.5580704
  29.9824629  36.5939348  69.5004748  28.2954897  37.7347826  68.9465473
  28.0258907  36.7423226  68.6354148  27.5264441  37.9231147  69.7196557
  28.2599534  38.8454559  67.8445028  27.2275090  39.5084961  67.8425602
  29.3615358  39.1273371  67.1367571  30.1615510  38.5651442  67.2100900
  29.4697534  40.2920798  66.2155291  28.8583973  41.1301745  66.4201294
  30.9522698  40.7956197  66.4143547  31.6750819  40.0968001  66.0351796
  31.0523776  41.6605405  65.6788882  31.4026904  41.2718160  67.8313694
  31.2471189  40.5027217  68.5279022  32.8991316  41.7210785  68.0180527
  33.2256460  42.4869856  67.2525227  33.0979573  41.9686580  69.0541334
  33.5852171  40.8314667  67.8906405  30.7074403  42.5086035  68.3367566
  30.8800466  42.7449336  69.3932960  30.8966365  43.3982330  67.8202481
  29.6584515  42.3245058  68.2484317  29.2342566  39.8894005  64.7568401
  30.0838075  39.3713029  64.0295390  28.0069177  40.2161096  64.2429646
  27.3801322  40.7866281  64.8358937  27.6864909  40.1758798  62.7853546
  27.5334048  39.1408724  62.6008211  26.3853311  40.9179589  62.5590029
  25.6836440  40.6005260  63.3783914  26.6018357  41.9423712  62.8226670
  25.8721556  40.7829849  61.1168651  25.1498036  41.5389901  60.8189473
  26.6570209  40.6854990  60.3696844  25.1216164  39.4952623  60.9757648
  25.7626439  38.6065332  61.2767560  24.2966661  39.4887529  61.6361749
  24.5152062  39.3219936  59.6932329  23.6472026  39.8551949  59.6656470
  24.9881817  38.7169797  58.5783133  24.3406149  38.7007427  57.4776235
  23.3246793  38.9041823  57.4737040  24.7183112  38.2710351  56.6557970
  26.1305816  38.2037523  58.5351155  26.5529321  38.0409903  59.4077240
  26.4169425  37.7409452  57.7320236  28.9235880  40.5584888  61.9369152
  29.1581131  41.7488532  61.7823497  29.5655051  39.6170369  61.2043436
  29.2085754  38.6765613  61.2826106  30.8563553  39.7390393  60.5082235
  31.3036922  40.7218147  60.6407280  31.9459806  38.8082009  61.0570183
  31.6652401  37.7347205  61.1027601  33.4168805  38.9279856  60.3485379
  33.7840260  39.9266940  60.1284456  34.2124279  38.4120040  60.8688683
  33.4311270  38.4756968  59.4019142  32.2114813  39.3429301  62.3085428
  31.4151376  39.2559578  62.8138465  30.7762122  39.4616174  59.0327401
  29.8794205  38.6547580  58.6370528  31.5940156  40.0499879  58.1147936
  32.2844100  40.6674572  58.5201312  31.7829550  39.7885478  56.7245959
  31.1758465  38.9715645  56.3957472  31.1538332  41.0020871  55.9452331
  30.1113450  41.1440985  56.1173696  31.4800466  41.9369928  56.3541382
  31.4795757  41.0561935  54.3983023  32.5357453  40.9904222  54.2997515
  30.9484702  39.8851830  53.5627500  29.9037049  39.6630244  53.6540609
  31.0994166  40.0970836  52.5325370  31.4545007  38.9277748  53.7309237
  30.9721167  42.3627856  53.7854753  29.8855695  42.5652770  53.6427789
  31.3005541  43.2203910  54.3886209  31.4135490  42.5032659  52.8097885
  33.2619270  39.6324457  56.4153998  34.0646685  40.4455751  56.9054642
  33.6463290  38.7621302  55.5027278  32.8857494  38.2491496  55.0469008
  34.9948064  38.3549645  55.0831449  35.6619184  39.0983917  55.4637771
  35.4437634  36.9138830  55.5774453  34.9231828  36.1199867  55.0479423
  37.0342275  36.8314116  55.3440368  37.0990301  36.7925993  54.1918548
  37.5009094  37.7856379  55.6222867  37.4442723  36.0137894  55.8877476
  35.1533560  36.7263835  57.0731100  35.8058519  37.4322562  57.6552897
  34.1833395  37.0674029  57.3510906  35.4234156  35.3062127  57.5970839
  34.7987891  34.6582486  57.0742816  36.4808509  35.0643674  57.5936644
  34.9870185  35.2035904  58.5925971  34.9859920  38.4708547  53.5526319
  34.1633293  37.8538704  52.8763768  35.8592614  39.3432340  53.0135437
  36.3929984  40.0266057  53.5893403  35.9435139  39.6506279  51.6070217
  35.0812862  39.1849265  51.0306478  35.8527631  41.1412218  51.3385704
  36.4927121  41.7589863  51.9816490  36.1445554  41.4299433  50.3450468
  34.4439666  41.7334554  51.5444216  34.0294188  41.3766503  52.5396557
  34.4161887  43.3094029  51.4449128  34.4121479  43.6371123  50.4277795
  33.5529843  43.7494129  51.8471734  35.3044520  43.7034832  51.9641601
  33.4867961  41.2376866  50.4299948  33.1166315  40.2490610  50.5424195
  32.6611628  41.8937451  50.4573052  33.9486982  41.2913635  49.3859931
  37.1963242  39.1232398  50.9517740  38.2414401  39.7018288  51.1335399
  37.0810703  38.0598707  50.1270450  36.1588808  37.6213225  50.0957356
  38.2419686  37.4265661  49.3195306  39.2449386  37.7672219  49.6995513
  38.1994540  35.9246718  49.5453506  38.4697226  35.7582754  50.5501303
  37.1989939  35.5091817  49.4054581  38.8183827  35.3409197  48.8549496
  38.1887350  37.8065172  47.7298779  37.0748726  38.0065721  47.2599712
  39.3433454  37.6973081  46.9833621  40.6889576  37.2540831  47.3619449
  40.4951632  36.3821566  47.9677003  41.2073376  38.0770730  47.9431425
  41.3698632  36.9211243  46.0429745  41.0909143  35.9506538  45.6470083
  42.4184222  36.9534090  46.0823683  40.7500664  38.0363454  45.1013495
  41.0250966  37.9622696  44.0549309  41.0612593  39.0707206  45.4564597
  39.2834316  37.9356472  45.5331160  38.8620852  38.9014450  45.3595526
  38.5331253  36.9473028  44.6642417  38.0771751  37.3476214  43.5688084
  38.4630285  35.6489146  45.1015044  38.7161429  35.4126802  46.0126074
  38.3155714  34.5197090  44.2558041  37.7304510  34.8263692  43.3507804
  39.7005083  34.0111031  43.7715142  39.6271625  33.0842378  43.2634459
  40.4153651  35.0203552  42.9124557  41.1471931  34.4343373  42.3172815
  39.7749024  35.4330626  42.0955475  40.8947645  35.9103137  43.4104623
  40.4610195  33.7607695  44.9200714  41.4605348  33.8377058  44.7549266
  37.7043833  33.3518149  44.9114492  37.6951189  33.3394399  46.1363984
  37.2124948  32.3092890  44.2323302  37.0955069  32.4430039  43.2331890
  36.8582201  31.0084239  44.7453948  36.0703107  31.1099263  45.5376567
  36.1715294  30.2715182  43.5636658  36.8788237  30.1381309  42.7583061
  35.8710882  29.2704012  43.9269375  34.8014185  30.8250066  43.0914680
  33.9836388  30.6654557  43.8514010  34.8778435  31.8511269  42.8530447
  34.3733098  30.1527251  41.8287065  34.4125017  29.0693428  41.9886414
  33.3637538  30.5126237  41.5669258  35.1989206  30.4523259  40.5896287
  35.7994282  31.2754581  40.6572973  34.9848418  29.8907213  39.4017869
  34.1287448  29.0141805  39.1011142  33.6974604  28.5297383  39.8864659
  34.1496750  28.5691272  38.2193747  35.6510014  30.2852459  38.3714214
  36.0993891  31.1889382  38.4662647  35.3958466  29.8778885  37.4355254
  38.0621626  30.2411734  45.2339224  37.8761899  29.4265578  46.1554388
  39.2629652  30.5103982  44.7471485  39.3688007  31.2377348  44.0543157
  40.4859985  29.8427002  45.1899420  40.4009403  28.6834741  45.3102046
  41.6954467  30.3543823  44.2357571  41.4591216  31.3736195  43.9932766
  43.1501912  30.5088799  44.7345480  43.1546243  30.9915283  45.6664934
  43.5166805  29.4757649  44.9315362  43.7730667  31.0162944  43.9300182
  41.7906642  29.6425568  42.9101335  40.8502541  29.5943899  42.4465779
  42.4084128  30.1720784  42.2236128  42.1957974  28.6285212  43.1104299
  40.7907992  30.2518314  46.6717404  40.9971023  29.3423282  47.4458761
  40.8100143  31.5366175  47.0009903  40.5207393  32.2083758  46.2746003
  40.9101937  31.9570548  48.4062367  41.8346976  31.5206909  48.7862282
  41.1031769  33.4939245  48.5997395  40.5314091  34.0490212  47.8779831
  40.9804440  33.9660181  50.0048268  41.5864311  33.3597735  50.6211431
  41.2324401  35.0682151  50.1936692  39.9267339  33.8521838  50.3997107
  42.4843008  33.8642215  48.0958135  42.5861828  33.6438484  47.0826414
  42.7132177  34.9631518  48.2860632  43.2313680  33.3468529  48.7020079
  39.8561722  31.4983460  49.3790483  40.1346865  31.0537107  50.4660677
  38.6089162  31.5102601  48.9624277  38.4253315  31.9238500  48.0453508
  37.5048310  30.7332491  49.6297323  37.2255104  31.2166960  50.5159606
  36.2984445  30.9349490  48.7760191  35.8441175  31.9342222  49.0493943
  36.6194657  30.8958536  47.6828465  35.6215648  30.0514358  48.9567539
  37.9031588  29.2734659  49.8717765  37.8098170  28.7883684  51.0221744
  38.4765881  28.5836294  48.8756130  38.3085323  28.9486919  47.9742429
  38.9224217  27.2239054  49.0038330  38.0687629  26.6399085  49.3316686
  39.4771521  26.5858545  47.7033250  38.7146273  26.6095915  46.9239897
  40.4378933  26.9916413  47.3981751  39.6880519  25.5678577  47.9514507
  39.9730614  27.1253679  50.1164359  39.8398890  26.2540771  51.0131434
  40.9838223  27.9780577  50.1253062  40.9821625  28.5495124  49.3333905
  42.0433462  28.0794887  51.1387088  42.4412002  27.1381009  51.3781675
  43.2540236  29.0005286  50.7186770  42.9705305  29.9892516  50.7841254
  44.1279903  28.8483721  51.4000381  43.8084657  28.5487240  49.3553107
  43.1343352  28.5789189  48.5231296  44.6318057  29.2666668  49.1704492
  44.4292483  27.1827793  49.5117652  45.0680332  26.8792050  50.5782477
  44.3925583  26.4279459  48.5542202  41.5812329  28.5817610  52.5041472
  42.2980244  28.3708391  53.5250923  40.3499745  29.2313356  52.5809659
  39.8359500  29.3557008  51.7323711  39.7271359  29.7331107  53.8437575
  40.5890721  30.0643391  54.4790034  38.8231407  30.9586109  53.6667392
  38.1404534  30.9240348  52.8052483  38.3654741  31.0914353  54.6160250
  39.6044091  32.2391874  53.4332278  40.2884381  32.2160546  54.3245482
  40.2245451  32.1960762  52.4967466  38.6875431  33.7958678  53.4559708
  39.9522829  35.0778066  53.4502777  40.7193770  34.8833070  54.1348291
  40.2463591  35.1575213  52.3848265  39.4851935  36.0246123  53.7141486
  38.9372688  28.6497922  54.6019281  38.9699147  28.6106129  55.7906798
  38.3804779  27.6868801  53.9106815  38.5195714  27.6515447  52.9161688
  37.7019070  26.4178067  54.4045363  37.0312823  26.6561967  55.2681810
  36.9485794  25.8857231  53.1177968  36.4387234  26.6988685  52.5593288
  37.6682779  25.5248197  52.4076830  35.9106660  24.8505685  53.5929775
  35.4470180  25.2081143  54.4857577  35.0732352  24.6919285  52.8624225
  36.6652968  23.4799721  53.8804047  37.5168473  22.9920488  53.0810882
  36.3120731  22.8343236  54.9211757  38.6835891  25.2934110  54.9113271
  38.4286681  24.5839876  55.9018399  39.9589612  25.3854150  54.4307248
  40.1594269  25.9606245  53.6795670  41.1383384  24.5477161  54.9502758
  40.9275485  23.4194952  54.9768680  42.2765370  24.8375188  54.0463093
  42.3025755  25.9074607  53.8430898  43.1885264  24.6808730  54.5290200
  42.1069010  24.0724096  52.7110108  41.5858693  23.1174152  52.9094769
  41.4917736  24.6368930  52.0159969  43.3336133  23.6080572  51.9493743
  43.1245141  22.8585353  50.9656383  44.4751777  24.0150915  52.3020183
  41.5319570  25.0156453  56.3744905  42.3761506  24.4306766  57.0816686
  40.9267901  26.0585654  56.9286789  40.2991133  26.5840726  56.3274515
  41.3946115  26.6143136  58.2221686  41.9568865  25.9255298  58.8477404
  42.3019444  27.7582191  57.7762564  41.7510961  28.4658660  57.2066910
  42.6992447  28.3061622  58.6388264  43.1718141  27.2958108  57.3027011
  40.2513417  27.2085160  59.1209432  40.3254406  27.2496960  60.3334418
  39.1180901  27.6501800  58.5500868  39.0968188  27.5826671  57.5376474
  37.9054284  27.9823081  59.3332454  38.2087690  28.3939049  60.2842988
  37.1387184  29.0598788  58.5268919  36.7035435  28.6662483  57.6440820
  36.3255877  29.4739404  59.1161202  37.9803191  30.3911535  58.1570356
  38.9515933  30.0936224  57.7194444  37.2416694  31.1912286  57.0705857
  37.1260326  30.4301177  56.3174559  36.2600071  31.5335661  57.4626192
  37.8709226  31.9518222  56.7451591  38.2055151  31.3731067  59.3159558
  38.4455082  30.7678914  60.1762486  39.0715218  32.0488674  59.0443915
  37.3170788  32.0196859  59.6184064  36.9764801  26.8602991  59.8632496
  35.8461693  27.1937894  60.1545200  37.4099122  25.6334195  59.8791102
  38.3494891  25.4243455  59.5721793  36.6886080  24.4392077  60.2791035
  35.7853011  24.3306904  59.7330953  37.4866889  23.1554036  59.9779339
  38.4792498  23.1673053  60.5518192  36.7924740  22.3075755  60.1737929
  37.8200007  23.0521598  58.5422948  37.0326206  23.4716278  57.8424022
  38.7317789  23.7112307  58.3234018  38.1768973  21.6239573  58.0873795
  39.1225791  21.2981577  58.5194538  37.3727424  20.8612029  58.2876204
  38.4043428  21.7046388  56.6369181  38.1298037  22.6383087  56.1970656
  38.8808529  20.8174669  55.8114347  38.9184570  21.1157797  54.5468086
  38.2943788  21.8736050  54.2057698  39.4095721  20.5333470  53.8659939
  39.4232256  19.7044477  56.2508060  39.4121202  19.5723709  57.2004557
  39.9133496  19.1198107  55.5574880  36.2132209  24.5217253  61.7436547
  36.7800952  25.2185435  62.5552260  34.9917689  24.0515237  61.9618896
  34.5132844  23.3871359  61.3216625  34.2991218  24.2476453  63.2569946
  33.3758504  23.5799047  63.1726701  34.9132329  23.9220740  64.0756638
  33.6627619  25.5987922  63.5371387  32.7560857  25.6848542  64.3360841
  34.0531493  26.6513746  62.8236885  34.7783555  26.4917085  62.1680645
  33.3177183  27.9584704  62.8051154  32.9498830  28.2587393  63.8602365
  34.2651635  29.1036935  62.3437741  34.6379475  28.8199060  61.3332294
  33.8877894  30.0634561  62.2091655  35.4831672  29.2613518  63.3572817
  35.8434023  28.3278696  63.7351289  36.6725386  29.9410725  62.6577925
  37.4480212  30.2325857  63.3790672  37.0868286  29.1825711  61.9827549
  36.3253833  30.8925726  62.2214490  35.1125466  30.0045407  64.6027672
  34.3296252  29.6153085  65.1549379  35.9893218  30.0492232  65.2542591
  34.7400920  31.0037520  64.3580327  32.1275214  27.7409376  61.8383969
  32.3913910  27.3081060  60.7374671  30.8973863  28.0740792  62.2223450
  30.2503174  28.2959307  63.5724784  30.6609153  29.2450718  64.0467748
  30.4500572  27.4549148  64.1639102  28.8505879  28.5094696  63.3244323
  28.5962381  29.5191359  63.6079900  28.2307811  27.8727878  63.9899733
  28.4968422  28.1468338  61.9180327  27.9061186  29.0388307  61.5866472
  27.8333004  27.2749374  61.9045501  29.8660231  28.0381302  61.2151947
  29.8661944  27.1056534  60.6573845  30.1311421  29.3015219  60.4552471
  30.2580656  30.4093198  61.0173797  30.1004115  29.1929171  59.0639579
  30.0615691  28.2161466  58.7653013  30.3391657  30.3265036  58.1268142
  30.3385859  31.2363382  58.7086401  31.7736080  30.2006825  57.5359912
  31.7957854  29.2716615  56.9806137  32.0362213  31.3163563  56.4903498
  31.8857376  32.3041920  56.9595627  33.0107544  31.2657793  56.0296687
  31.2778243  31.1336310  55.7003877  32.9121269  30.2668366  58.5529543
  32.6421963  29.5873417  59.2973319  33.8455363  30.0225075  58.0126049
  33.2003591  31.5707969  59.3606358  34.1863749  31.3997924  59.8070947
  33.1454966  32.5219348  58.7521783  32.5276413  31.5316072  60.2574963
  29.2192738  30.4116131  57.0395087  28.8221439  29.3110733  56.6098859
  28.8199755  31.5710308  56.5428386  29.2087292  32.4054656  56.9455698
  27.9249732  31.7004485  55.3504045  27.3404300  30.7265538  55.2016255
  26.8435077  32.8015124  55.6529365  26.6050420  32.8616389  56.7022020
  27.2929966  33.7652307  55.3320409  25.5021837  32.5059090  54.9161952
  24.9747016  33.4659955  54.7877575  25.7029540  32.1864348  53.9337611
  24.6456152  31.3993518  55.6605176  25.2231097  30.4992653  55.7621716
  24.5703676  31.6988740  56.7383853  23.3261794  31.2181546  55.0067127
  23.2378910  31.2925909  54.0152077  22.2288031  31.0981399  55.7007002
  22.2254727  30.7333766  56.9342443  23.0479113  30.4123381  57.4490030
  21.3428479  30.6288331  57.3552079  21.1047881  31.2941798  55.0917936
  21.0937765  31.7961698  54.1973581  20.3600575  31.0828438  55.7068096
  28.7478892  31.8929424  54.1326829  28.9630529  32.9911084  53.6225361
  29.0864596  30.7316807  53.5095736  28.8154176  29.8910492  53.9592005
  29.6669022  30.6102758  52.1596083  30.4661698  31.3050668  52.0492263
  30.3367862  29.1836245  52.0295337  29.5335930  28.4980657  52.2430186
  30.6596353  28.9962401  51.0218931  31.4946052  28.9199481  52.9644897
  31.3491429  27.9514310  53.9681770  30.4237315  27.3392485  54.1575123
  32.4065137  27.7845327  54.8525874  32.3027057  27.3071889  55.7569904
  33.6820437  28.3950280  54.6639616  34.6219309  28.2283826  55.6347641
  34.2505116  27.5564184  56.2387994  33.7958863  29.3636644  53.6554902
  34.7473618  29.9175546  53.4423173  32.7372631  29.5720815  52.7410099
  32.8650890  30.3015950  51.9197978  28.7669027  31.0164175  50.9864450
  28.1483652  30.1447121  50.3306768  28.5691216  32.3331978  50.8066361
  28.9938273  32.9622348  51.3829183  27.7964735  32.9506994  49.6902634
  26.9830236  32.2197504  49.4409293  27.1486102  34.2588494  50.1039614
  27.8744429  34.8994633  50.6441079  26.7028170  34.8276982  49.3172296
  26.0470124  34.0461747  51.0476550  25.3146189  33.3535849  50.6284699
  26.3572383  33.5909945  51.9947509  25.2500824  35.2861746  51.3995995
  24.1362884  35.4481799  50.8548445  25.8781113  36.1622015  52.0743865
  25.3486271  36.9664837  52.5856998  26.7475376  35.8605482  52.4907869
  28.6747403  33.0381439  48.4655215  29.0038816  34.1602786  47.9801083
  29.0997769  31.8496860  47.9719451  28.7896361  30.9789626  48.4186141
  29.8115882  31.6522398  46.6708156  29.3642480  32.2550039  45.8865653
  31.2962230  31.9752549  46.9380676  31.3824800  33.0280712  47.1564102
  31.9110175  31.1969785  48.0813247  31.3999957  31.4276435  49.0248084
  31.8212032  30.1689794  47.9131695  33.0055393  31.4545377  48.1364570
  32.0917912  31.6280031  45.8666204  31.9333827  32.3573843  45.2536884
  29.6321809  30.1642572  46.2468749  29.2708141  29.3520642  47.1340587
  29.8647473  29.7561799  44.9986728  30.1439115  30.4934654  43.7842766
  31.1848685  30.3466935  43.5033287  29.9217601  31.5689468  43.8607754
  29.2801583  29.8153653  42.7370275  29.5908437  29.9037301  41.6792633
  28.1824298  30.0200989  42.9306925  29.5223628  28.3020076  43.0958477
  30.4338245  28.0476869  42.6313927  28.6789028  27.6741206  42.7734806
  29.7456610  28.3576437  44.6170068  28.8138967  27.9765418  45.0394969
  30.9843100  27.5788325  44.9865576  30.8731469  26.3092002  44.9003448
  32.0628322  28.1977257  45.3394283  31.9979841  29.1716193  45.3164345
  33.2834703  27.6041619  45.7379257  33.7847349  27.1912344  44.8891665
  34.1694880  28.6471303  46.3421448  34.4046546  29.4804740  45.5954369
  33.7383192  29.2584594  47.1380653  35.0994256  28.0785475  46.6697982
  33.0769323  26.4114453  46.7565397  33.6869431  25.3627559  46.6040104
  32.3479269  26.5754890  47.8496184  31.8618696  27.4143624  47.8813370
  32.2952360  25.7079748  49.0620115  32.9859523  24.9081607  48.9575505
  32.5269393  26.4752281  50.3610014  31.6737850  27.1694349  50.4534321
  32.4636628  25.6205856  51.5895182  33.2009672  24.7760416  51.5536249
  32.5149893  26.2621342  52.4622331  31.4753633  25.1576743  51.6974418
  33.8819908  27.2257553  50.2770660  33.6852585  28.0772173  49.5989111
  34.0941564  27.6564691  51.2429952  35.0615044  26.2652432  49.9546496
  35.9865466  26.8769212  50.1596144  34.9754902  25.4249505  50.6049337
  35.0851169  25.9788555  48.9148746  30.9756742  25.0153989  49.1365747
  29.9598538  25.7191234  48.8929160  30.8971490  23.6919745  49.4300661
  31.8383081  23.3643836  49.7084490  29.6247403  22.7720475  49.3534152
  28.7533560  23.3553049  49.7499049  29.4934729  22.3471631  47.8693973
  30.5156370  22.1099420  47.5371531  28.9425029  21.3858190  47.7285337
  28.9114875  23.3966892  46.8667168  29.5161903  24.3049433  46.8015423
  28.7591372  22.9698614  45.9143494  27.5279822  23.9490641  47.2313867
  26.8402856  23.1367358  47.2329567  27.6492106  24.2883199  48.2498432
  27.0604657  24.9247353  46.2380180  26.4797154  24.6349169  45.5002964
  27.0980982  26.2568591  46.4146365  26.4192935  27.1299631  45.7248331
  25.6495770  26.8037771  45.1787706  26.6497860  28.0822572  45.8276492
  27.8920455  26.8517064  47.2380227  28.5431700  26.2029020  47.6075387
  28.1014881  27.8107224  47.1972158  29.7774583  21.5096657  50.1292126
  30.9256743  21.0372871  50.3043443  28.7509215  20.7910409  50.5724429
  28.8797099  19.8067605  50.9539021  27.3550357  21.3420712  50.6672258
  27.1764250  22.0357436  49.7690678  26.3560560  20.2336124  50.3316496
  26.6068899  19.8621696  49.3971542  26.3374718  19.4387861  51.0269466
  25.3676573  20.6749217  50.1128202  27.0520485  22.0637898  52.0638418
  27.6295494  21.6747222  53.1138638  26.2579629  23.1377737  51.9638440
  25.9234749  23.4762940  51.0515076  26.0043109  23.9935155  53.1146883
  26.3126642  23.4532450  54.0337315  26.9658854  25.2369819  53.1066223
  26.4748414  26.0029593  52.5423674  27.1170143  25.6660616  54.1193359
  28.4090631  24.9553463  52.5213761  28.4443778  24.4713333  51.5489422
  28.8962951  25.9450419  52.3464419  29.1856179  24.0857838  53.5263406
  28.9766313  24.2810229  54.7710085  30.1841625  23.3504221  53.2959745
  24.5134558  24.3223435  53.2219071  23.7783795  24.0459378  52.2635491
  23.9120817  24.8105121  54.3601216  22.9023675  24.7629441  54.4436995
  24.4244157  25.5178499  55.5719598  25.4474398  25.4050455  55.7147559
  24.2974125  27.0746756  55.3244126  24.4459784  27.6495951  56.2441843
  25.0637081  27.3582732  54.5887663  22.9502758  27.6634560  54.7842344
  21.8310195  27.8694857  55.5108780  20.8444441  28.2472969  54.6584217
  19.8553997  28.5407865  54.9538471  21.3013411  28.3051935  53.4134006
  20.7582241  28.5369356  52.5671953  22.6467285  27.9301075  53.4798665
  23.3601427  27.7930841  52.7062476  23.7711318  25.2053534  56.9160448
  22.8364239  24.3707857  56.9453454  24.2135825  25.7712811  58.0723163
  24.9267756  26.5104453  58.0749459  23.5874472  25.3941213  59.4135877
  23.1778120  24.3276892  59.4486590  24.5811150  25.5376024  60.5661631
  24.3222713  25.0104782  61.5037922  26.0097281  25.1400295  60.2500133
  26.4313698  25.7347582  59.4094895  26.6183107  25.2573504  61.0665235
  25.9897593  24.0357711  59.9706546  24.7166567  26.8841607  60.9527986
  25.0795542  27.4366274  60.2252957  22.3334513  26.1996549  59.6996301
  21.6062547  25.9007773  60.6122157  22.0247871  27.2547170  58.8856584
  22.7201060  27.3893228  58.0999515  20.8844162  28.1337941  59.0556094
  20.7579765  28.7590784  58.0670159  20.0464001  27.4171110  59.0226974
  20.9734534  29.1087674  60.2592605  19.9913161  29.8633939  60.5066162
  22.1153597  29.0717345  61.0184679  22.8865153  28.5191891  60.6326370
  22.2487328  29.8978852  62.2295137  21.4048924  30.4920610  62.3815845
  22.2419290  28.9488532  63.4383243  23.0322801  28.2563954  63.2853853
  22.3699249  29.5354186  64.3474835  20.9744516  28.0137236  63.4728959
  20.1071287  28.6478953  63.4469120  20.8851215  27.4053938  62.5877101
  20.8426933  27.2179270  64.7730244  21.7435844  26.6102827  64.7691976
  20.9885155  27.8142790  65.6239413  19.6268988  26.4361295  64.8455552
  19.5528060  25.8620939  63.9600549  18.7144547  26.3562689  65.7998006
  18.8674004  26.9366869  66.9952112  19.7592191  27.4631827  67.0634339
  18.4206439  26.5578872  67.8380166  17.6762143  25.5308601  65.7941105
  17.2990923  25.0388474  64.9847350  17.1036345  25.4843358  66.6826353
  23.4728632  30.8632349  62.2112346  24.0713070  31.2404966  63.2020480
  23.9956443  31.1088481  61.0094951  23.6480943  30.6468658  60.1726315
  25.2021481  31.9246873  60.8052242  25.9367098  31.5133747  61.4779917
  25.7470282  31.8317810  59.3527318  25.0700424  32.2671523  58.6289896
  26.4465372  32.6287750  59.2662706  26.2378383  30.4499387  58.7976079
  26.5319272  30.6448579  57.7390182  27.0658534  30.1598620  59.4276921
  25.2359388  29.3020531  58.7209198  24.0157537  29.5472729  58.6638340
  25.6296776  28.1039850  58.7364794  25.1475845  33.3348202  61.3201945
  24.0903502  33.9750773  61.3420630  26.2695406  34.0049610  61.6219361
  27.1534447  33.4898089  61.6409595  26.3844125  35.4600609  61.7704446
  25.4917309  35.8564477  61.2654326  26.4287807  35.9058745  63.2330879
  26.3683538  36.9519818  63.3190337  25.1795315  35.3351800  64.0806679
  24.1859549  35.6540846  63.6163746  25.2670855  34.2607585  63.9892029
  25.3042762  35.5823725  65.1225975  27.7219904  35.5577320  63.9991087
  27.8378951  34.4833538  64.0904260  28.5627867  35.9242340  63.4021381
  27.8156400  36.1828450  65.3553045  27.5039122  37.2044168  65.3255877
  27.3634979  35.5112558  66.1277926  28.8858307  36.2900664  65.5926586
  27.5829564  35.9668537  61.0109294  27.7211795  37.2060530  60.9676501
  28.4631575  35.0948548  60.4222297  28.2834583  34.1076649  60.4311420
  29.6844719  35.4803145  59.6850679  29.7211937  36.5781195  59.8522235
  30.8996058  34.8717321  60.3376363  30.8615619  33.7603203  60.2964742
  32.1899930  35.2472634  59.6435063  32.3239607  34.5739212  58.7451469
  32.3244548  36.2980735  59.4107025  32.9691995  34.8808620  60.2361214
  30.9529025  35.1775008  61.8185774  31.9571977  35.0050544  62.1352597
  30.5570854  36.1329951  62.1366190  30.2798144  34.5128619  62.3094714
  29.6507690  35.1701926  58.2377027  29.7167811  33.9328922  57.9470719
  29.3946774  36.1730698  57.3375240  29.4283137  37.0887512  57.6926725
  29.2880390  36.0577997  55.9116392  28.7100600  35.1725641  55.6344105
  28.5835046  37.3064132  55.2982192  29.0613153  38.2117094  55.6536282
  28.7644763  37.3726124  54.2331693  27.1034872  37.4041008  55.6215524
  26.5182222  36.5966724  56.3804935  26.5617964  38.3633580  55.0509061
  30.6948678  35.8655961  55.2895643  31.7294523  36.3206201  55.8377266
  30.7665454  35.1938911  54.1634283  29.9173410  34.8000672  53.8106245
  32.0526623  35.1269631  53.4141023  32.5953443  36.0980348  53.6690207
  32.8966311  33.9380864  53.8429413  32.9531733  33.8807617  54.9225291
  32.3428040  33.0440973  53.5513152  34.3235442  33.7712544  53.3535745
  34.8525907  34.7218053  53.2202762  35.1726009  32.9513246  54.3370251
  34.6264114  32.0958390  54.5865186  36.1132351  32.5926817  53.9088811
  35.4755013  33.5504052  55.2249275  34.3819775  33.0684125  51.9871911
  35.4265444  32.8889387  51.6923999  33.9194183  32.1132908  52.0503670
  34.1031017  33.6958652  51.1624552  31.7452248  35.1094117  51.8866652
  31.0655793  34.2141559  51.3104594  32.3044217  36.0383401  51.1657144
  32.8991250  36.6438483  51.7116993  32.0567542  36.2518119  49.6836437
  32.2031475  35.2981720  49.2036033  30.6951738  36.7985197  49.4356644
  30.4547441  36.6437856  48.3868972  29.9061326  36.2533294  49.9635517
  30.6027857  38.2897249  49.7448086  30.9383303  38.5449552  50.7863307
  31.3038677  38.9528408  49.1141504  28.9409726  38.9435907  49.5092581
  28.2325647  38.8269384  51.2273400  27.1649644  38.8117546  51.2120976
  28.6184891  37.8491932  51.5809860  28.5247747  39.6504357  51.8172021
  33.1313588  36.9836266  48.9176955  34.1251517  37.4623824  49.5078180
  33.0595148  36.9604349  47.5729461  32.2156150  36.4956832  47.2249071
  34.0434017  37.4935323  46.6673032  35.0365530  37.2009175  47.0313414
  34.0119389  36.8537014  45.2965133  32.9913744  36.9758369  44.9148875
  34.6790171  37.3716218  44.6505610  34.6205664  35.1621214  45.3265868
  33.3940915  34.6513295  45.2390448  33.9372074  38.9861960  46.6503993
  32.8566421  39.6037308  46.9084706  35.0686870  39.6631403  46.2822835
  35.8688989  39.0521326  46.1467114  35.2751452  41.1207636  46.2269158
  35.1682718  41.5445246  47.2341925  36.6988540  41.4970209  45.7640871
  36.9759591  40.7855245  45.0191654  36.7565314  42.5001778  45.3087622
  37.8335221  41.3180905  46.7741321  39.1516564  41.7069576  46.5491311
  39.7895760  41.4530087  47.6811546  40.8204803  41.7091249  47.7808019
  39.0435059  40.8697556  48.5803212  39.4101944  40.4381361  49.4343375
  37.7872679  40.8172316  48.0735584  36.9903038  40.3244408  48.5816423
  34.2878314  41.8632770  45.2855452  33.6828945  42.8658728  45.7109414
  34.1648620  41.3380091  44.0867104  34.7064563  40.4605529  43.7530564
  33.0817616  41.8600875  43.2582470  33.1967833  42.9500005  43.3125477
  33.5382394  41.4893009  41.8038290  32.8476388  41.8026339  41.0027929
  34.5003267  41.9207034  41.6737473  33.6452339  40.4268208  41.7689786
  31.6524933  41.4059991  43.6242339  30.7257680  42.0515957  43.1796824
  31.4522160  40.3605547  44.4871288  32.2528408  39.8388013  44.8614505
  30.0867409  39.9160005  44.7801820  29.5557530  40.0841547  43.8566205
  29.9066681  38.4668866  45.4013612  30.2447392  38.3331784  46.4223838
  28.4478731  37.8750693  45.3437662  28.3615229  36.9984761  45.9647781
  27.6637133  38.6442857  45.6204043  28.3065886  37.4447462  44.3617775
  30.6809678  37.5923432  44.6137686  30.6884716  36.7838230  45.0801195
  29.4854886  40.9291707  45.7413596  28.4134427  41.4509344  45.4804247
  30.2222187  41.2268789  46.8886347  31.1879971  40.8918367  47.0278596
  29.6930166  42.2165562  47.8180473  28.7621777  41.7988308  48.0968805
  30.5465296  42.4380400  49.0191367  30.7425084  41.5146698  49.5076079
  31.4406380  42.9057993  48.6391498  29.9858724  43.3375549  50.1565843
  28.7388296  43.0329842  50.7320960  28.1830964  42.2474396  50.3495160
  28.2705593  43.8225617  51.8031097  27.3640349  43.5699518  52.3036139
  28.9825253  44.9379751  52.2737376  28.6897129  45.5411002  53.0928960
  30.2192011  45.2472079  51.6013224  30.8461138  46.0609431  51.8910485
  30.7135617  44.3790994  50.6498398  31.6613272  44.6535397  50.2348516
  29.4727436  43.6193288  47.1375082  28.5178045  44.3418886  47.4760419
  30.3210196  43.9769169  46.1566599  31.1803080  43.4018424  45.9983584
  30.2171925  45.1722714  45.2634704  30.1397091  45.9577710  45.9748212
  31.4889188  45.3903048  44.4117492  31.6639785  44.5517775  43.7702006
  31.4388364  46.6922135  43.5968664  32.3972258  47.0017901  43.3357814
  30.7813566  46.5433227  42.6210272  30.9364032  47.4232388  44.1945080
  32.4492296  45.5949331  45.4650392  33.2627622  45.5964019  45.1007816
  28.9481919  45.2590113  44.4708620  28.1699500  46.1869435  44.6489480
  28.6234653  44.1219483  43.7957210  29.3250609  43.3893113  43.8007825
  27.3482922  43.8278048  43.0843088  27.2518451  44.5504913  42.2245389
  27.4464226  42.4522511  42.3867956  28.1908515  42.4863398  41.6037706
  27.7172221  41.7066813  43.1200281  26.1183788  41.9264323  41.7009761
  25.2775735  41.8949892  42.3528241  25.8560585  42.6436376  40.9619941
  26.2582147  40.2120512  41.1690093  26.1483424  39.2480252  42.6976697
  25.8944687  38.1285472  42.5777631  27.2071282  39.2681046  42.9638971
  25.5405880  39.7508304  43.3963377  26.0786726  43.9650424  43.9596764
  25.1755564  44.7522438  43.6894672  26.1365982  43.3893594  45.1910353
  26.9779651  42.8672428  45.3925133  25.1853499  43.4610266  46.3477717
  24.3024139  43.1230870  45.9175767  25.7232674  42.6917231  47.6160073
  26.8492900  42.6986056  47.5750248  25.4273844  43.2481574  48.4510077
  25.1830670  41.2349226  47.8031598  25.2193920  40.7555813  46.8472561
  25.8498634  40.7118190  48.5344927  23.7817155  41.3101462  48.3956442
  23.8157161  41.8153421  49.3602060  23.2295394  41.9923288  47.7276567
  23.3213532  39.9344832  48.5593205  23.7406780  39.3122723  49.2137267
  22.1253582  39.4952975  48.1764342  21.3947370  40.0562504  47.2025859
  21.7049842  40.9238753  46.7345953  20.4141923  39.7839251  47.0160673
  21.5150656  38.5639592  48.8637744  21.9930373  38.2055322  49.6585930
  20.5118647  38.4906755  48.6344428  24.8546181  44.8998238  46.6812471
  23.6699639  45.1929167  46.7980636  25.8177541  45.8272003  46.7579408
  26.7260290  45.5139969  46.4502602  25.6110674  47.2045859  47.0912083
  25.0244193  47.3813164  47.9953676  26.9884790  47.7678742  47.4612592
  27.6290550  47.6926251  46.6339998  26.8749412  48.8087403  47.6762603
  27.7709663  47.3447484  48.7678223  27.6276688  46.2898394  48.9279928
  29.2994799  47.6662769  48.6374584  29.6608538  47.1694685  47.7053303
  29.5439378  48.7123004  48.4045550  29.8993621  47.2385896  49.4126743
  27.1730909  47.9634958  49.9974384  26.0462521  47.7883407  50.1755677
  27.7840698  47.7118816  50.8700694  27.3153470  49.0313600  50.0154870
  25.0345726  48.0442809  45.8901858  24.2453094  48.9733848  46.1368061
  25.3801886  47.6949825  44.6881083  26.1426075  47.0618392  44.4954081
  24.7685722  48.3581954  43.4481429  24.7749297  49.4253635  43.5581633
  25.6969211  47.9856811  42.2653045  26.0697230  47.0365579  42.4733420
  25.0859556  48.0921184  41.3108915  26.9367731  48.8651320  42.0988723
  27.4587324  49.0297932  43.0097463  27.8363501  48.2583473  41.0454229
  27.2574500  48.1946494  40.0649468  28.6694358  48.9094247  40.9397824
  28.1322660  47.2299030  41.1977031  26.5417980  50.2232531  41.4885835
  26.1137465  50.0771860  40.4196335  25.7117122  50.7694450  41.9499253
  27.4252979  50.8683964  41.4383882  23.2998419  48.0349013  43.1139089
  22.5925646  48.8653099  42.4611565  22.8636380  46.8243409  43.4620634
  23.5246411  46.1833263  43.8047637  21.4905154  46.3207577  43.4918301
  21.1756166  46.3967960  42.4967762  21.5184051  44.8610656  43.9212984
  20.8038182  44.3001945  43.3507521  22.4318173  44.3353638  43.5952390
  21.2769477  44.5116956  45.2636301  21.7992898  45.1343574  45.7954602
  20.4016830  47.0457369  44.3283372  20.7796949  47.8355740  45.2232362
  19.1130353  46.9133470  44.0190966  18.5500613  46.0136177  42.9546423
  18.8906085  44.9931202  43.1364807  18.7246891  46.3709247  41.9897624
  17.0329393  46.0832565  43.0479576  16.7680175  45.3269502  43.7584139
  16.3617157  45.8850999  42.2311233  16.6961848  47.2860390  43.9380246
  15.8141044  47.1551086  44.4802490  16.6926013  48.1942424  43.3791713
  17.9701980  47.3952960  44.7880684  18.1779958  48.4347203  44.9571853
  17.8543915  46.8535365  46.1969388  17.1620935  47.5043292  46.9846260
  18.4094603  45.7042862  46.5258297  19.0845997  45.3106665  45.9144219
  18.2859455  44.9714415  47.7454098  17.2380356  45.0623705  48.0705684
  18.6503312  43.5409688  47.3987870  19.7412391  43.4488916  47.3465939
  18.2502555  42.5147013  48.4060737  17.1779551  42.3111629  48.3095427
  18.7706315  41.6164683  48.1270424  18.3659958  42.8143958  49.4327510
  18.1019963  42.9041513  46.0688247  17.0649525  43.0478312  45.9783743
  18.5191610  43.3494936  45.2331679  18.2189977  41.8655897  46.0946643
  19.1949842  45.5341405  48.7863142  20.3559634  45.8579607  48.4805629
  18.7510023  45.6194018  50.0371092  17.7605242  45.2883861  50.1557861
  19.5937733  45.8269592  51.1937373  20.0328368  46.7917212  50.9878404
  18.7108738  45.9395138  52.4983847  18.0766946  45.0909482  52.6627499
  19.3419241  46.0369406  53.3282970  17.9613069  47.2832868  52.3918729
  18.6485425  48.0288285  52.0575120  17.1827640  47.1386411  51.6484721
  17.1692496  47.6780030  53.6309184  16.4416796  46.9237624  53.8999548
  17.8806629  47.7746728  54.4680712  16.4774925  48.9653695  53.3921414
  16.8038290  49.4149744  52.5823764  15.6884290  49.6300614  54.2056838
  15.1291698  50.7350445  53.8493156  15.2033215  51.1508451  52.9467713
  14.5132410  51.1966302  54.4115099  15.3323469  49.0817112  55.3672316
  15.7625800  48.1911898  55.6043576  14.7174065  49.6008589  55.9713374
  20.7241614  44.8041048  51.3673660  20.7259664  43.6857541  50.8895931
  21.7260378  45.3205896  52.1346430  21.5297670  46.2362339  52.4542638
  22.7808419  44.5485027  52.7953861  22.5624587  43.5285096  52.6318707
  24.1628224  44.8874859  52.2864616  24.8351872  44.4866116  53.0770682
  24.6254729  44.2045743  51.0283012  24.5465094  43.1355859  51.2868269
  24.0387036  44.4730721  50.1147921  25.6886097  44.4665131  50.8702292
  24.4552060  46.3830357  52.0183198  24.1948786  46.9551459  52.9532715
  25.4962670  46.5454709  51.8304292  23.8495547  46.7327674  51.1705281
  22.7694167  44.7989802  54.3103532  22.1749500  45.8165544  54.6586738
  23.3052789  43.8570337  55.1160810  23.7392805  42.5104624  54.7440076
  24.7262156  42.3650151  54.4042515  23.0650471  42.1905428  53.9822843
  23.6129514  41.7147763  56.0294337  24.1584259  40.7852075  55.9862678
  22.5772443  41.3999027  56.2058261  23.9626500  42.7178225  57.1317937
  25.0618904  42.7727032  57.3051083  23.4088687  42.3611725  58.0560586
  23.2818836  43.9345917  56.5297566  22.2831563  44.1185355  56.8752212
  24.1229688  45.1716577  57.0285861  25.0391557  45.5464011  56.3518711
  23.8088550  45.6444990  58.2245890  23.0745940  45.1747256  58.6712934
  24.6691891  46.4711060  59.0311103  25.3176237  47.0245129  58.3993762
  23.8604222  47.4886797  59.8865038  22.9778611  47.8618499  59.3136145
  23.4777930  47.0095668  60.8054268  24.5874800  48.7359841  60.2239264
  25.3469314  49.3075902  59.4309812  24.5590586  49.0822947  61.4542245
  25.2907334  49.7660434  61.6105709  24.0437588  48.7095098  62.2309004
  25.6453645  45.6001063  59.8406280  25.2968431  45.0505046  60.8709842
  26.8745243  45.3825384  59.3421358  27.0698794  45.8805928  58.4889629
  27.9072180  44.5373829  59.9384649  27.4528532  43.6061073  60.2186485
  28.8890313  44.0886729  58.8893653  29.4410486  44.9684344  58.4608518
  29.7013961  43.5911193  59.3976285  28.2348600  43.3453654  57.7289663
  28.0542263  43.9090156  56.4550819  28.1708678  44.9779285  56.2693289
  27.6263962  43.1165943  55.4100875  27.4797058  43.5571550  54.5090935
  27.4420072  41.7211464  55.4904495  26.9808752  41.0686178  54.3908281
  26.7921899  40.1637903  54.6288154  27.5504052  41.1189505  56.7811023
  27.3245664  40.0853095  56.9160916  27.8951033  41.9956520  57.9035700
  27.8880665  41.5493191  58.8711128  28.5546745  45.1135235  61.1911677
  29.0101311  46.2552339  61.1815401  28.7747417  44.4181155  62.3061682
  28.5530674  43.4032226  62.3446932  29.6240836  44.8231983  63.4652410
  29.3698346  45.8150832  63.8272786  29.4852509  43.8513639  64.6259588
  29.6546790  42.8395572  64.3103181  30.2380849  44.0061656  65.4226388
  28.1319107  43.8213513  65.3656287  27.4343300  42.8490882  65.4049278
  27.8314976  44.7520454  66.1938772  27.2027897  44.4785814  66.9015433
  28.3009113  45.6688452  66.3519018  31.1343072  44.9057200  63.1470086
  31.8178244  45.7208325  63.7722071  31.6114267  44.2329544  62.0977814
  30.9471330  43.8850652  61.4489172  32.9939957  44.0285537  61.8278513
  33.4802578  44.9833362  61.9561327  33.5816511  42.9534208  62.7408106
  33.4943459  43.3106206  63.7354629  32.8660450  42.0999598  62.7067104
  34.9921588  42.3589667  62.4166605  34.9337922  41.9183225  61.4310210
  35.9967358  43.5101819  62.4260005  36.1094933  43.9152267  63.3614473
  36.9260718  43.2748615  61.8585436  35.5503158  44.2906476  61.8196753
  35.4240209  41.3776094  63.4839089  35.2231868  41.8518995  64.4630602
  34.8019501  40.4849279  63.2623336  36.4311800  41.1686457  63.4602890
  33.0721534  43.7078073  60.3197232  32.2165090  42.9921927  59.8410462
  34.0904456  44.1544040  59.6165705  34.7770328  44.7471408  60.0363678
  34.3424164  43.8488481  58.2047600  33.7244626  43.0074670  57.9459201
  33.9380824  44.9417279  57.2024753  34.6509979  45.7550950  57.3375391
  34.0063714  44.4218640  55.7537107  33.8954393  45.3150426  55.1223814
  35.0804938  44.2034730  55.6240717  33.3667461  43.5361067  55.5633085
  32.4965474  45.4796687  57.4699648  31.8686528  44.6016375  57.5535129
  32.4824370  45.9809992  58.4405039  31.8895666  46.4847302  56.4689672
  31.6356101  46.0382461  55.4909162  31.0208730  46.9937204  56.8507260
  32.6611146  47.2764251  56.2474180  35.7815153  43.4224706  58.0947604
  36.6670426  44.0808964  58.6033214  36.0415344  42.2829759  57.4208253
  35.2886730  41.7498228  57.0623520  37.3343123  41.7298876  57.1646331
  38.1087514  42.3455138  57.6077076  37.5595046  40.3641502  57.7974728
  36.9626638  39.6034055  57.2789149  39.0550913  39.9656756  57.7352386
  39.1466131  38.8789669  57.9663386  39.5233543  40.0138742  56.8191527
  39.4771829  40.6702055  58.4817477  37.1765152  40.4398219  59.3198163
  37.7769170  41.1597921  59.8491384  36.1424331  40.7174333  59.3874876
  37.2308755  39.1103920  59.9913619  37.1054995  39.1971665  61.0357307
  36.4292024  38.5452862  59.5116421  38.1880564  38.6540737  59.9489351
  37.5386616  41.6683141  55.6374599  36.5809861  41.4546768  54.8655575
  38.7721542  41.7886051  55.2166883  39.4826597  41.9707552  55.9349337
  39.0898654  41.8610787  53.7576590  38.3046962  41.2550148  53.2315465
  39.0570797  43.2948834  53.1607372  38.0083162  43.7087348  53.2476800
  39.7295592  43.8948695  53.7299536  39.5237079  43.2847635  51.6612115
  40.5881313  43.1057451  51.5579519  38.9827985  42.4902650  51.1174985
  39.3271469  44.9093465  50.8219072  38.7082408  44.4460425  49.1682080
  38.1324995  43.5484168  49.2549530  38.1160488  45.2063179  48.6441094
  39.5569798  44.1386780  48.6062036  40.4082666  41.2230846  53.5113751
  41.3331268  41.7250794  54.1297592  40.4672128  40.2249739  52.6484057
  39.6927439  40.0011357  52.0820267  41.7644256  39.7361977  52.2477096
  42.5094358  39.9458458  52.9639487  41.6680730  38.2019985  51.9841125
  41.0934038  37.7011790  52.7333390  41.1556377  38.0004494  51.0747355
  42.9646458  37.4244266  52.1944394  43.9950955  38.0385055  52.4205261
  42.9886255  36.1647459  52.2768830  42.1784154  40.4370729  50.9165244
  41.3827769  41.0136921  50.1758782  43.4544678  40.2822416  50.6174291
  44.0928595  39.7083142  51.1124641  44.0891265  40.9006600  49.4301721
  45.2028605  40.9294148  49.5770075  43.9218203  39.9492728  48.2311117
  42.8580416  39.9959736  47.9894509  44.3993721  40.3789056  47.3706051
  44.4496646  38.5329951  48.4830158  43.6990812  37.8799730  49.0326380
  44.3712542  37.9809196  47.5677174  45.8264788  38.4608919  49.0389706
  46.6622300  39.3150504  48.6304708  46.1420612  37.3844470  49.7159463
  43.6656477  42.3564838  49.1416834  43.5427030  42.6920180  47.9474924
  43.5453070  43.1716915  50.2144597  43.6650708  42.6576428  51.0783499
  43.0985482  44.5930545  50.3940257  42.0454887  44.6520486  49.9903246
  42.9744258  44.8059690  51.9022564  44.0049651  44.7670630  52.4150005
  42.5234601  45.7905562  51.9944419  42.3591189  43.9764781  52.3071900
  44.0007280  45.6502902  49.6252141  44.3000622  46.7669123  50.1488879
  44.3028374  45.2932832  48.3741204  44.0033746  44.3454023  48.1378560
  45.0630111  45.9301605  47.3237532  45.0277749  46.9752957  47.5009059
  46.5283611  45.5587584  47.4847768  47.2149447  46.2675399  46.9339079
  46.8378414  45.5777955  48.4862254  46.8601035  44.1790267  46.9917422
  46.6063150  42.9358404  47.6520132  47.0893974  41.9692071  46.8323912
  47.2328292  40.9564961  47.0522446  47.4805689  42.4825906  45.7019632
  47.9790823  41.9034792  44.9655631  47.3997057  43.8449979  45.8029737
  47.7114795  44.4982281  44.9533397  44.6210456  45.7568014  45.8494234
  44.9024139  46.5923797  44.9646433  44.0219990  44.5518237  45.4843175
  43.8526479  43.9448234  46.2922312  43.7968825  44.0463783  44.1473358
  44.7419730  43.8406877  43.6951829  43.2289415  42.6094812  44.2977825
  44.0778736  41.9515030  44.6134570  42.4700477  42.5443273  45.0640138
  42.6287961  41.9358925  43.1065266  41.3592496  41.4156486  43.1436409
  40.7416570  41.4637333  43.9799736  40.7943537  40.7535744  42.0453472
  39.7850120  40.3659225  42.0824470  41.5704072  40.6221043  40.8662455
  41.1106152  40.1583328  40.0166598  42.9041402  41.1407915  40.8438510
  43.6626118  41.0253621  40.0269006  43.4324093  41.7463746  42.0024746
  44.5270182  41.9297987  41.9910331  43.0857382  44.9687037  43.1872757
  42.3736636  45.9077258  43.5817563  43.2582406  44.7263236  41.9125157
  43.8280550  43.9028992  41.6035800  43.0398402  45.7343291  40.8741818
  42.8014244  46.6757977  41.4595112  44.4069947  45.8518216  40.1290880
  44.4303925  46.4994434  39.2557039  45.3323460  46.5808725  41.0912670
  46.3807649  46.5141916  40.6431080  45.0894117  47.6140713  41.2000355
  45.4587307  46.0707095  42.0669216  44.9759272  44.6848325  39.6471823
  44.6246049  44.7066332  38.6672689  41.9520352  45.3651794  39.8307563
  41.8081050  46.0149233  38.8018734  41.0913804  44.3717836  40.1250996
  41.2366763  43.8925872  40.9525351  39.6832968  44.4418745  39.5882239
  39.7542572  44.3870669  38.5045346  38.9110890  43.1638472  40.0990350
  39.3731550  42.3686755  39.5273146  39.1148138  43.0424637  41.1971109
  37.4090102  43.1808445  40.0589366  36.7995254  42.6262346  41.0026950
  36.7809136  43.8077104  39.2078739  38.9489715  45.6978282  40.0798054
  39.0021179  46.0195221  41.2468007  38.3089636  46.4961691  39.2168777
  38.2167442  46.3696134  37.7345123  38.2849176  45.2911925  37.4761587
  39.0209050  46.9049627  37.2161465  36.8139017  47.0690831  37.4693169
  35.9975613  46.4405751  37.8309496  36.6715901  47.2737873  36.3974080
  36.9313844  48.3020115  38.3709803  35.9582606  48.7594235  38.5721540
  37.5268815  49.0989394  37.8496742  37.6365347  47.7648857  39.6124096
  38.3343044  48.5576071  39.8544876  36.5349072  47.5841327  40.6456640
  36.2235510  48.4822932  41.4164927  35.9413473  46.3797036  40.8403877
  36.3001585  45.6180083  40.2794276  34.9409234  46.1323171  41.8772929
  34.3006466  47.0404209  42.0277989  34.1037027  44.9937032  41.3169776
  33.1638859  44.7164305  41.8696133  33.7767534  45.1654149  40.3114237
  34.6876374  44.0821764  41.2459695  35.6114139  45.8316358  43.2253864
  34.9573181  46.0795485  44.2517778  36.8928016  45.4664819  43.3059285
  37.3797788  45.3878175  42.3904917  37.6962551  45.2006765  44.5554789
  37.0534750  44.7822984  45.3569715  38.8228006  44.2114481  44.1563428
  38.4469085  43.2363095  43.8770202  39.3257732  44.6018552  43.2741449
  39.8062384  44.1142780  45.1440909  39.4381431  43.3471372  45.6048165
  38.3354106  46.5389678  45.0298273  38.3822650  46.8425663  46.2315870
  38.6091526  47.4579593  44.1029120  38.4392751  47.2756435  43.1267417
  38.9041841  48.9182147  44.4166941  39.5656725  48.9118447  45.2234685
  39.4659457  49.7332404  43.2022975  38.7374683  49.7506416  42.4129959
  39.8457330  51.1757027  43.6112938  40.6247606  51.1707568  44.4066762
  40.3012289  51.7244506  42.8198097  38.9368140  51.7259804  43.8277553
  40.7688845  49.0299914  42.7101337  41.5264725  49.2378830  43.4161571
  40.7522526  47.9287881  42.7023658  41.2627781  49.4105708  41.3019898
  40.4605550  49.2660948  40.5906118  41.3068930  50.4967203  41.2142266
  42.1658418  48.9561382  40.9621599  37.7004950  49.6546555  44.9860429
  37.7904243  50.3768995  46.0022426  36.5633886  49.4279006  44.3979983
  36.4794151  48.9414224  43.5361500  35.3527825  50.1257447  44.7796944
  35.5170848  51.2447599  44.8025676  34.2591444  49.9287940  43.7882242
  34.6425079  50.3838028  42.8866255  34.0832721  48.8450513  43.5855825
  33.3610432  50.4239324  44.1295529  34.8564590  49.6781109  46.1643893
  34.4223136  50.5421438  46.9315739  34.9984236  48.3654547  46.5100091
  35.2213823  47.7458665  45.7561588  34.7405695  47.8383745  47.8339254
  33.6677825  47.8517955  48.1133231  35.1879695  46.3700356  47.8512154
  36.2044997  46.2678885  47.4342416  35.1044370  45.8943941  48.8589033
  34.5438761  45.7423195  47.1621193  35.3999978  48.6463930  48.8950042
  34.7561046  48.9974246  49.8574294  36.6483904  49.0424196  48.7312442
  37.0605091  48.7274260  47.8964066  37.5836287  49.6647022  49.7755470
  37.4821807  48.9833081  50.6428092  39.1009316  49.6031317  49.4086575
  39.2400453  50.0442699  48.3961257  39.7318141  50.1250398  50.0956764
  39.5806977  48.1170863  49.4544047  39.5372913  47.7660930  50.4646334
  38.9283252  47.4661696  48.8250776  41.0195249  47.8631505  49.0395677
  41.6307738  48.4907876  49.7299808  41.1579412  46.7834180  49.2530117
  41.2980200  48.1125713  47.6287364  41.4614403  49.0179329  47.3605515
  41.5326506  47.2257159  46.7090226  41.2131170  45.9882908  46.7494072
  40.6715546  45.5446341  47.4375801  41.1987462  45.5261612  45.8671888
  42.1014720  47.7084585  45.6716002  42.2727591  48.7166394  45.7027575
  42.3789619  47.1446475  44.8984384  37.0606861  51.0489096  50.0700045
  36.8224232  51.4608127  51.1955817  36.7004291  51.7241019  49.0126326
  36.7041502  51.2944632  48.1415758  36.0658372  53.0482187  49.0333787
  36.7685988  53.8497423  49.3508828  35.7046286  53.3249139  48.0345847
  34.7931748  53.0699506  49.8645970  34.7239243  53.8200106  50.8216610
  33.8299368  52.1868974  49.6202830  34.0430581  51.6300800  48.7647854
  32.6899461  51.8699417  50.4634021  31.9797922  52.7739352  50.3651747
  31.8630005  50.7349435  49.8800796  31.6244009  50.9700244  48.8907252
  32.4172106  49.7994817  49.8413203  30.6103286  50.4882704  50.7372125
  29.5361993  51.4542547  50.6125090  29.6244329  52.1461467  49.8203113
  28.3286177  51.3106902  51.2591030  27.6356704  52.1366691  51.1176697
  28.1784789  50.3682541  52.3071410  27.0178451  50.3471697  52.8768586
  26.3419897  50.5931321  52.2355917  29.2428346  49.4274772  52.4892809
  29.0042303  48.7099927  53.2493347  30.4074052  49.4037864  51.6386151
  31.1599150  48.6917732  51.8072369  33.1184807  51.6172361  51.9714455
  32.6908886  52.3649200  52.9202460  33.8808960  50.5708934  52.1411102
  34.0181414  49.9323147  51.3624833  34.2312500  50.0409845  53.4874925
  33.3202718  49.7164156  54.0976932  34.9496020  48.6643230  53.3082488
  35.7186651  48.8137237  52.5426871  35.7252830  48.2148570  54.6202943
  36.4524543  48.9988046  54.8829628  35.0616929  48.0848952  55.4638561
  36.3541728  47.2642414  54.4650214  33.9031157  47.6432013  52.9536634
  33.4826504  47.3107103  53.8926232  33.1529114  48.1243903  52.3236310
  34.4480949  46.4204017  52.1888393  35.2857837  46.7728685  51.5169341
  35.0003192  45.7246240  52.8535761  33.7040910  45.9039574  51.7638387
  35.0332911  51.0284032  54.3277026  34.7367754  51.2009044  55.5058001
  35.8978174  51.8640332  53.6938394  35.9994221  51.6744169  52.6898377
  36.5616085  53.0045590  54.4280039  36.9286179  52.7295333  55.3831895
  37.5822988  53.6166122  53.4710244  38.0679553  54.4382123  53.8862642
  38.3484237  52.8491809  53.3195784  37.0307627  54.0337424  52.2447232
  36.7518137  53.1897020  51.7525148  35.5648548  54.0988890  54.7929810
  35.6569188  54.5612717  55.9843499  34.5942180  54.4281565  53.9655208
  34.6142274  53.9842018  53.0370756  33.4862003  55.3801974  54.2009885
  33.8649319  56.3586578  54.5984779  32.6446308  55.6184869  52.9506350
  32.2343468  54.6530229  52.5884015  31.4364095  56.5678200  53.0757382
  30.9081115  56.4124815  52.1219102  30.6849627  56.3240596  53.8663757
  31.8373569  57.5272773  53.1055087  33.4942416  56.0655207  51.9524149
  34.0031011  55.2747283  51.6470916  32.5949422  54.9490001  55.4086866
  32.1927147  55.7725357  56.2154751  32.2420181  53.6771939  55.5707463
  32.6132362  52.9699380  54.9078134  31.4378686  53.2413822  56.7210792
  30.5550524  53.8706355  56.8989086  30.9255169  51.8934138  56.4771513
  31.6880409  51.1005437  56.4541446  30.3069180  51.7235818  57.3681240
  29.9998966  51.6391328  55.3172073  30.5478101  51.5709425  54.4165908
  29.5890484  50.6714256  55.5607590  28.8322530  52.5916868  55.0229744
  29.1594326  53.5570496  54.6304271  28.2223553  52.1789782  54.2446120
  28.0114487  52.7658077  56.2506077  27.5885807  51.8671744  56.5608582
  27.2175530  53.8050462  56.5573022  27.6025218  55.0387653  56.5207625
  28.5770483  55.1654360  56.3851533  26.8462945  55.6970531  56.5213274
  26.0082357  53.5982217  57.0845293  25.8488096  52.6659165  57.4265259
  25.3848014  54.3542069  57.1405602  32.2356122  53.2615192  58.0407240
  31.7860545  53.7982176  59.0737395  33.4399966  52.7300169  58.0350460
  33.8581573  52.4713442  57.1546476  34.3690703  52.8294371  59.1048729
  33.9120835  52.3664632  60.0210010  35.6409755  52.0209795  58.8708882
  36.0883707  52.4832837  58.0009245  36.5459356  52.0253666  60.0524631
  36.1563949  51.7337558  61.0503097  37.2751641  51.2483504  59.8545585
  37.1005042  52.9680476  60.0930050  35.3375695  50.5245604  58.6217157
  36.1908056  50.0895319  58.1295520  35.0089571  50.0191256  59.5345219
  34.4580535  50.3769867  58.0523970  34.7378775  54.3121206  59.5223655
  34.7148888  54.6027903  60.7101137  34.9435986  55.2139549  58.5631332
  35.0257819  54.8617592  57.5696062  34.9266607  56.6732316  58.7503086
  35.6737826  56.8665648  59.5801653  35.4515910  57.4492827  57.5118379
  36.2537245  56.8316565  57.0813197  34.6903950  57.4699585  56.7491439
  36.0332921  58.8427278  57.6877701  36.3027882  59.2075138  56.6408435
  35.2016205  59.5540924  57.9277805  37.2215410  58.8776039  58.6294696
  37.2514346  59.7426785  59.4823043  38.1818452  58.0334728  58.5599119
  33.6119800  57.2687261  59.3653324  33.7297028  58.2135345  60.1628053
  32.4024215  56.7454535  59.1749941  32.3166832  56.1751739  58.3251508
  31.1395055  57.1762530  59.9104664  31.1350652  58.2320690  60.0909651
  29.8856371  56.9675386  59.0195787  29.8774575  55.9408028  58.6107563
  29.0020559  57.0574512  59.6008004  30.0718750  57.9682309  57.8497326
  30.2662832  59.0041702  58.1664840  30.9628597  57.7128761  57.2773155
  28.5227394  57.9525615  56.8326758  27.4778497  58.8146561  58.0540650
  26.8520111  58.1650791  58.6001731  28.1364027  59.4247898  58.6037259
  26.7264144  59.4028538  57.4849532  31.0365713  56.4876445  61.2952726
  29.9868242  56.5822911  61.9115127  31.9664493  55.7339460  61.8683640
  32.8257847  55.5511067  61.3274871  31.9355610  54.9601697  63.0979705
  32.8938269  54.5412658  63.2219444  31.8193611  55.5821076  64.0200339
  30.9559915  53.7440388  63.1802172  30.8342322  53.0975660  64.1929240
  30.2686960  53.4399473  62.0502764  30.3474740  54.1019118  61.2816620
  29.1851901  52.4025460  61.8930400  28.3442773  52.5702853  62.5663830
  28.7816958  52.4934127  60.4450777  28.4359969  53.3686583  60.0405540
  29.6673878  52.1891325  59.8536193  27.6456779  51.5431006  60.0060821
  27.7698864  51.6047857  58.9150673  27.9158346  50.5059351  60.3321768
  26.2237055  51.9358538  60.4427815  25.5245928  52.6501202  59.7242346
  25.8572576  51.6224885  61.5983438  29.6582295  51.0020305  62.3278623
  28.8677787  50.2236772  62.9447083  30.9285645  50.6169185  61.9232091
  31.5145794  51.3150738  61.5180332  31.5032822  49.2452879  62.2054510
  31.0103933  48.7511578  62.9946951  31.3964535  48.4160088  60.8966788
  30.3537827  48.3399598  60.5401499  32.0200746  48.8471009  60.0395460
  31.7134950  47.3753889  60.9630609  33.0094256  49.3527774  62.5035027
  33.5927700  50.3837741  62.7877246  33.5372819  48.1626854  62.5514474
  32.9692696  47.2865269  62.5163334  34.9106194  47.8731346  62.6873211
  35.4150629  48.8314541  62.7789873  35.1823586  47.0576368  63.8985336
  34.8393916  46.0315672  63.7755562  36.2864962  47.0337409  63.9538442
  34.7971131  47.5113418  64.8745100  35.4626920  47.3140077  61.3897797
  34.6584042  46.7483976  60.6141354  36.7434166  47.5572731  61.1061168
  37.1936270  48.1222847  61.8461654  37.3812881  47.1676211  59.9001192
  36.7792964  46.4142552  59.3878124  37.3809557  48.1054538  59.3409421
  38.8124284  46.5668602  60.0778915  39.6480097  47.0565804  60.8210539
  39.0687327  45.4991252  59.2370478  38.3761424  45.1333179  58.6275126
  40.3282690  44.7567271  59.2989679  41.0661367  45.4031801  59.6312572
  40.2891044  43.6187256  60.3329932  39.4844701  42.9357007  60.0372430
  41.6025243  42.7713722  60.3838370  41.3550109  41.8757573  61.0044084
  41.8267050  42.4220289  59.4004522  42.4349485  43.2947758  60.8487186
  39.9607547  44.0369427  61.8256406  40.7910880  44.6480645  62.2668052
  39.1277405  44.6646142  61.7446574  39.6255142  42.8191236  62.7557993
  38.9341301  42.1369098  62.1869179  40.5803750  42.3595438  63.0958572
  38.9941381  43.2018402  63.5863315  40.7540265  44.2984149  57.9027041
  40.0158213  43.5557511  57.2134335  41.9137801  44.7305955  57.3892856
  42.4753344  45.3419767  58.0035864  42.4906488  44.4956890  56.1074164
  41.8211019  43.9222354  55.4137973  42.7296863  45.7889812  55.3061540
  43.2726850  46.5121304  55.9193397  43.3502979  45.5388559  54.4639051
  41.5610691  46.5444736  54.7784790  40.2279417  46.1475437  55.0361562
  40.0584972  45.2899577  55.6305106  39.1683198  46.6931096  54.2741421
  38.1716846  46.2237900  54.3917875  39.3875326  47.8019462  53.4424512
  38.5747494  48.2208856  52.8751139  40.7455197  48.2248553  53.2193957
  40.8506674  49.0535537  52.5244952  41.8004137  47.7109199  54.0183018
  42.8304146  48.0169838  53.9188104  43.7027722  43.6188677  56.2207669
  44.2975165  43.5142722  57.2471688  44.0560109  42.9645927  55.1375852
  43.3511683  42.9230580  54.4355837  45.1042888  41.9842007  55.0283994
  45.8379834  42.1832919  55.7883950  44.6169751  40.5881073  55.3345359
  43.7850304  40.4272308  54.6875302  45.3294699  39.8069651  55.0807241
  44.1406896  40.2981128  56.7700064  44.9558930  40.6230589  57.4458575
  43.2301784  40.7877492  56.8553770  43.6492924  38.5453001  57.1087849
  42.6384012  38.0519972  55.6414879  43.3031767  37.8887020  54.7489230
  42.0134951  37.0956653  55.8081800  41.9818433  38.8875883  55.4118356
  45.7381948  42.1538113  53.6566675  44.9028845  42.1814690  52.7131185
  47.0635060  42.1187321  53.5092880  47.7087469  42.2030260  54.3196782
  47.8112857  41.8395742  52.2604563  47.6648920  40.8012182  51.8841695
  47.4327432  42.7821008  51.0764589  46.4225780  42.4644740  50.7663446
  47.4787769  44.2616159  51.3631706  47.0085895  44.4095487  52.3532978
  48.4713271  44.6841286  51.2295947  46.6693178  44.7241052  50.7075063
  48.2053911  42.7169815  49.8217575  47.6024020  42.4807735  49.0953809
  49.3176849  41.9520996  52.4962850  49.6762238  42.7514356  53.3010788
  50.1218100  41.3172955  51.6457710  49.7149945  40.7476268  50.9181357
  51.5608368  41.5592543  51.5206147  51.9351385  41.6088270  52.5593561
  52.1941897  40.3974973  50.8480143  52.1613854  39.4893659  51.3564827
  51.8019524  40.1711204  49.8787393  53.2383775  40.7452082  50.6357564
  51.9838146  42.8824966  50.7626381  53.1006329  43.3932580  50.8696365
  50.9769684  43.3761544  50.0595266  50.0921209  42.9223608  49.9527158
  51.3991162  44.2791543  48.9618677  52.3976193  44.8542179  49.1601445
  51.5900392  43.5626971  47.5818116  51.9026955  44.1694399  46.7661824
  52.7512334  42.6459959  47.7246953  52.8517688  41.9783270  46.8112422
  53.7484163  43.1094479  47.7997026  52.5492502  41.8902089  48.4532012
  50.3620234  42.9119856  47.2549145  49.6219306  43.5950413  47.3532275
  50.3933725  45.3838391  48.8565970  49.6533696  45.4636124  47.8672717
  50.2477440  46.2803820  49.8449215  51.2020589  46.3476709  50.9832410
  52.1839601  46.1074291  50.7417732  50.8713407  45.6785317  51.7294527
  51.0216287  47.7131016  51.5954956  51.5078794  48.4831204  50.9788971
  51.3981958  47.8664527  52.6162690  49.5068888  47.8426420  51.5484617
  49.3770123  48.9684363  51.6569442  49.0429670  47.1837449  52.3251488
  49.2146619  47.2590850  50.1521925  48.2942832  46.6822452  50.1407680
  49.2011761  48.4102472  49.0471207  50.3056594  48.5572607  48.5200743
  48.1360158  49.1386001  48.7988608  46.7681823  49.0532329  49.4257015
  46.7144168  49.4965889  50.4947450  46.4323921  48.0492252  49.6038744
  45.8501402  49.8201308  48.5210690  45.1263263  50.3973482  49.0953119
  45.3330767  49.1677946  47.8326648  46.7394564  50.8569862  47.8379389
  46.6164055  51.8391692  48.2951147  46.4598740  51.1233859  46.8181560
  48.1383486  50.2199295  47.8239528  48.3912815  49.8398910  46.8117393
  49.1759633  51.2799097  48.2132721  49.1230642  51.9419251  49.2512553
  50.2076381  51.4636079  47.3527252  50.2261293  50.9479471  46.5408479
  51.2918352  52.3720182  47.7413959  51.4747759  53.0989287  46.9483371
  51.0815205  52.9956479  48.6218354  52.6059565  51.6100822  47.9505777
  53.6569702  52.2854604  47.9859206  52.6042529  50.3285103  48.2269335
  51.6720563  49.9363867  48.3497697  53.7811424  49.4533350  48.1469904
  54.4746659  49.7615958  48.9181784  53.4344266  48.0327568  48.5845076
  53.2263379  47.9214943  49.6777632  52.5347663  47.7215136  48.0706471
  54.6071663  47.2135190  48.3156683  55.2586929  47.7986332  48.7540615
  54.5003626  49.4973962  46.7743411  53.9360700  49.5135378  45.6884369
  55.8078337  49.7144115  46.8127655  56.2390716  49.7587228  47.7470857
  56.6110763  49.6358959  45.5584850  56.0586937  49.2123989  44.6516039
  57.0928564  51.0478711  45.1136612  57.5272814  51.4495194  45.9948660
  57.7612910  50.9076767  44.2586355  55.8956351  51.9101305  44.5791369
  55.6237051  51.4363093  43.6803533  55.0786486  51.9045175  45.2419428
  56.3783358  53.3670633  44.3858905  56.9301138  53.7706825  45.2194941
  57.0531519  53.4080412  43.5285698  55.2676839  54.2202028  43.9220162
  55.0544451  54.3430118  42.9243612  54.3317850  54.7575691  44.6968528
  53.4028451  55.5116419  44.2021291  53.3535581  55.8157500  43.2274489
  52.7972569  55.9560611  44.8720724  54.4421622  54.6591948  45.9715029
  55.1529670  54.0965291  46.4333687  53.7810263  55.1092893  46.5931068
  57.7509233  48.6336055  45.6738625  58.8688577  48.8576670  45.2402938
  57.5252890  47.4759001  46.2875752  56.6348834  47.3579798  46.7220377
  58.4399641  46.4112698  46.4357535  59.4325329  46.6874832  46.0320613
  58.6284345  46.2049026  47.9477411  57.6740511  46.3194764  48.5382621
  59.0546810  45.1975615  48.0785515  59.7294950  47.0981503  48.5318594
  60.9322993  46.7803553  48.3628099  59.4520445  48.2131525  49.0670321
  58.0324405  45.0165698  45.7688666  57.2142278  44.2693665  46.3466187
  58.6174136  44.6620062  44.5773669  59.5874375  45.4072063  43.7487353
  60.5725514  45.5843952  44.2647255  59.1847732  46.3287330  43.3517835
  59.7853298  44.4967002  42.4733533  60.6117677  43.7496097  42.7013218
  59.9317890  45.1323008  41.5318104  58.4626253  43.7734776  42.3034284
  58.5060001  42.9482559  41.6137301  57.7205121  44.5120576  41.9939147
  58.1849613  43.4515787  43.7828220  57.1399818  43.3369649  43.9046091
  58.9126237  42.1693836  44.2682066  58.5721766  41.1100691  43.7256374
  59.8283786  42.2566388  45.2466629  60.0345780  43.1137817  45.8006401
  60.5747462  41.0990807  45.7852961  60.1639545  40.0652737  45.5471117
  62.0031774  41.0923613  45.1705296  62.5201866  41.8654836  45.7784713
  62.4914444  40.1465752  45.5444691  62.3268788  41.3149738  43.7160384
  62.1560332  40.2818516  42.8188714  61.6493660  39.3511754  43.0828029
  62.5825527  40.3492562  41.4408780  62.3719506  39.4437416  40.8323465
  63.2777037  41.4627059  41.0069214  63.6537962  41.5770742  39.9863082
  63.3694437  42.5697829  41.9033889  63.8525954  43.4253247  41.4757129
  63.0423554  42.4712167  43.2606932  63.3331158  43.3035866  43.9379034
  60.5812977  41.0942744  47.3585975  61.5771424  41.2521494  47.9711377
  59.4357855  41.0796071  47.9937917  58.1334730  40.8309435  47.3861869
  58.1245704  39.9878004  46.7369358  57.8020834  41.6303586  46.8699823
  57.1807635  40.6188184  48.4817769  57.2149979  39.5481662  48.7347789
  56.2113489  41.0508839  48.1732047  57.7962614  41.4520001  49.6475843
  57.3287224  41.1306573  50.5217331  57.6166098  42.5408942  49.5393756
  59.2975116  41.2527525  49.4514424  59.7135089  42.2021555  49.8065990
  59.8273426  40.1462888  50.3002195  60.4171093  39.1561713  49.7720751
  59.8073764  40.1769704  51.6170567  59.2666474  40.9535433  52.0339627
  60.1260004  39.0457740  52.4940680  61.1707285  38.8342403  52.2955513
  60.0905224  39.6118611  53.9134493  60.9188227  40.2889456  53.9877059
  59.1174029  40.1758008  53.9779401  60.2240337  38.5778467  55.0284808
  59.4618304  37.8136077  54.8572811  61.2663711  38.2398297  55.0535179
  60.0881062  39.2203602  56.3962066  59.8581916  40.4342733  56.5321164
  60.3428853  38.4733021  57.4700912  60.2646432  38.9845352  58.3113576
  60.9529359  37.6036264  57.4031829  59.3853368  37.7028452  52.1733665
  58.3455967  37.7856232  51.5595851  59.9016182  36.6337882  52.6693195
  60.7174694  36.7764186  53.2240562  59.4336425  35.2394535  52.5602228
  58.3963531  35.1723228  52.2626295  60.1988675  34.4869333  51.4510314
  59.9389164  33.4315882  51.6350159  59.7493870  34.7838167  50.4868218
  61.6359363  34.5601078  51.4231170  61.9582501  33.6621704  51.3309986
  59.7596372  34.3656360  53.8143510  60.6445004  34.6407703  54.6193375
  59.0143604  33.2693187  54.0616802  58.2458478  33.1392782  53.3851414
  59.2578259  32.2124981  55.0453576  59.2825824  32.7557778  55.9447224
  58.0520870  31.2315226  54.9587037  57.8926211  30.9668950  53.8963353
  58.1823118  30.2390603  55.4527107  56.7931698  31.8057021  55.5062678
  56.7376254  32.7079126  56.3316763  55.6734050  31.2015413  55.1517516
  54.7567756  31.5701934  55.3908594  55.7139149  30.5342895  54.4145221
  60.5777160  31.4021648  54.8232549  61.2142850  30.9181906  55.7433922
  61.0626640  31.3195991  53.5891636  60.3932776  31.6144631  52.9079757
  62.2688966  30.6281007  53.1447878  62.9480694  30.5890697  54.0194353
  61.8956694  29.1195212  53.0388965  62.8345821  28.5304349  53.0641940
  61.2041591  28.8133861  53.8648690  61.3929701  29.0006090  52.0627722
  62.9782463  31.2150428  51.8759195  62.2582703  31.7474321  51.1016426
  64.2747677  31.1990263  51.6895906  65.2097471  30.5939325  52.6571425
  65.2658763  29.5186989  52.6583656  65.0496511  31.1392791  53.6619031
  66.5588677  31.0516046  52.1753938  67.3124363  30.2408513  52.3750606
  66.7842079  32.0466192  52.6032028  66.4142712  31.2650386  50.7051444
  66.6003832  30.3245613  50.2573501  67.1386326  32.0135779  50.2784535
  64.9928783  31.7488494  50.5376355  65.0533237  32.7952885  50.6415021
  64.5553452  31.2603714  49.2035329  64.0386532  30.1516827  49.0717384
  64.6254236  32.2048725  48.1819513  65.0525504  33.1445618  48.3682947
  64.1007635  31.9371736  46.8673993  63.8380573  30.9232329  46.8666354
  62.8246055  32.7939320  46.6504222  63.1100847  33.9044624  46.6521789
  62.1896300  32.3587611  45.3026854  61.9754263  31.3097322  45.4023548
  61.2978120  32.8640975  45.1640665  62.8054464  32.5358531  44.3711017
  61.7365022  32.6425567  47.7165197  61.0601938  31.8016993  47.5670488
  62.2182065  32.5660795  48.6804641  60.7272988  33.8430256  47.7525223
  60.0058816  33.6214475  48.4675176  61.3174165  34.7702998  47.8826475
  60.2794493  34.0355613  46.7491029  65.1890800  32.1509839  45.7703857
  65.9112879  33.1682281  45.8327275  65.2724558  31.3196967  44.7393715
  64.6189229  30.5814354  44.8117053  66.1175795  31.5463493  43.5530966
  67.0068834  32.1133442  43.8338564  66.6262256  30.1976947  43.0845592
  65.7688315  29.5854317  42.8428611  67.3510738  30.2526587  41.7614428
  68.1617707  30.9563301  41.7615108  67.7508208  29.2899391  41.5585664
  66.6128775  30.6112488  41.0187837  67.5524925  29.5821760  44.1590767
  68.4567646  30.1961391  44.2049133  67.0778182  29.5474590  45.1019960
  68.0910657  28.1829343  43.8560253  68.9497943  28.2864931  43.1580623
  68.4484091  27.7962359  44.8050637  67.3139791  27.5319603  43.4830694
  65.3323346  32.3897736  42.4950539  64.5120461  31.8933388  41.7263559
  65.4406871  33.6897994  42.5189808  65.9745334  34.0601052  43.3360118
  64.6641697  34.7196373  41.6892801  63.9075708  34.1177588  41.1625182
  63.8971173  35.7897573  42.4983478  63.5341419  36.5467352  41.7648686
  63.0260466  35.2810490  42.9380559  64.6433306  36.4587154  43.6903370
  64.0377578  37.3422700  44.3161558  65.7543618  36.2266515  44.0505904
  65.5661515  35.2259239  40.5508482  66.4589206  36.0556070  40.8491106
  65.2940486  34.8401977  39.2903439  64.4399887  34.3489674  39.0941418
  66.2670151  35.0514027  38.2048052  66.7102080  36.0392879  38.3982027
  67.3533222  33.9576419  38.2844006  67.7741235  33.9452236  39.2767343
  66.8835959  32.9543960  38.2143634  68.6349109  34.0519939  37.4803068
  68.4337603  34.6339248  36.6061902  69.4601893  34.5987369  38.0517822
  69.1154768  32.6679521  37.1373063  69.0244377  31.7303513  37.9272192
  69.5488358  32.4613891  35.9702549  65.6282727  35.2244621  36.8103910
  64.6021434  34.6556236  36.4815879  66.3314355  35.9263325  35.8931290
  67.1246165  36.4662529  36.2521363  65.8001974  36.3412894  34.5708401
  64.7652660  36.3017466  34.6273549  66.2307649  37.8190383  34.4107787
  66.0633424  38.3020238  35.3925173  67.2379665  37.7500495  34.1357114
  65.3928534  38.5332989  33.3462967  65.5514182  38.0353369  32.3768927
  64.3204089  38.3855882  33.5513218  65.7651105  40.0369260  33.3321622
  65.0545373  40.7666201  32.5759013  66.5469223  40.5710809  34.1336180
  66.2442684  35.5085932  33.4354988  67.4540598  35.3025120  33.2230647
  65.2904442  35.0629082  32.6198427  64.3749807  35.1786538  33.0013786
  65.4219532  34.3342170  31.2909015  66.5043088  34.4105569  31.1476343
  64.9815682  32.8193804  31.4665547  64.9922690  32.6284469  32.5701043
  63.9311304  32.8193140  31.0954585  65.7375974  31.7460060  30.6742759
  65.3117297  30.7444802  30.8686339  65.6486227  32.0626256  29.6247689
  67.1457628  31.7377035  31.2243431  67.5623460  32.7073212  31.0539772
  67.0962094  31.4964639  32.3073573  67.8979245  30.7303056  30.4224372
  68.1373373  31.0152801  29.5079581  68.1487428  29.4298403  30.6593417
  68.8589191  28.7467348  29.8283922  69.3586259  29.3318607  29.1300735
  69.1216736  27.7723854  30.0626207  67.6617442  28.7824371  31.6369793
  67.1399254  29.1961760  32.3562207  68.0082062  27.8155527  31.8326610
  64.6055110  35.0253888  30.2255197  63.9189836  36.0308167  30.4805674
  64.7404708  34.5101171  29.0208364  65.3735173  33.7604526  28.9263998
  63.6245470  34.6750976  28.0805148  63.1739585  35.6520932  28.2165350
  64.2943951  34.5952293  26.6629918  64.9570408  35.4871217  26.6395986
  64.9255240  33.6792200  26.6180965  63.2666609  34.6825757  25.4797042
  63.7632474  34.6046288  24.4902110  62.6362018  33.7637350  25.5012803
  62.3870730  35.8921993  25.4108593  62.9390483  37.0220233  25.4258808
  61.2863540  35.7406744  24.8173279  62.6625672  33.4837851  28.3364605
  63.1151171  32.3549389  28.5249617  61.3604659  33.7746277  28.3589016
  61.0908597  34.6258028  27.9925872  60.3280701  32.7807721  28.5907551
  60.7160283  31.7885729  28.7411633  59.4822467  33.0632060  29.9020018
  59.2605356  34.1505377  29.7886829  58.1533922  32.2675580  30.0120259
  58.3593531  31.2079448  30.0033797  57.7182602  32.4308864  31.0137322
  57.3176129  32.4618627  29.2429826  60.3232772  32.8263783  31.1062042
  60.3648679  31.7186263  31.3978711  61.2978380  33.1257319  30.7242460
  60.1033959  33.5718556  32.3711879  60.9944621  33.5237800  33.0001636
  59.7917061  34.6433857  32.1666968  59.3257845  33.0488702  32.9016773
  59.3685879  32.7225445  27.4378125  59.0553793  33.8170239  26.9679584
  58.8878350  31.5262002  26.9684786  59.4706160  30.1836473  27.3525507
  59.0817112  29.7778592  28.2423105  60.5337444  30.2919755  27.4358594
  59.1927576  29.2779273  26.1732520  58.8278927  28.2455491  26.4939251
  60.0089749  29.2923869  25.4100441  57.9206127  29.9196309  25.5237214
  57.0265715  29.4790706  25.9973953  57.8982448  29.7135789  24.3996555
  57.9978504  31.4275366  25.8008396  58.4915907  31.9777428  25.0032912
  56.5054450  31.9256967  25.9116839  56.0468370  32.0615014  27.0143829
  55.7538423  32.1376251  24.7637984  56.2156473  32.0081952  23.8557972
  54.3283229  32.3007409  24.8132716  54.0280517  32.2970407  25.8141467
  54.0056062  33.7062529  24.2096289  54.2462891  33.6062526  23.1714122
  52.9984162  33.9412030  24.4195285  54.8612115  34.8413669  24.7906279
  54.5262279  34.8275135  25.8306976  55.9475984  34.7207266  24.7609031
  54.4304783  36.2125245  24.2882382  54.1904758  37.1611715  25.1481931
  54.4111381  36.3611211  23.0560882  53.4027702  31.3415744  24.0723759
  52.2200746  31.1491618  24.3781634  53.9598406  30.5938008  23.0311194
  54.9537415  30.6138660  22.9849407  53.3243896  29.5755763  22.1896210
  52.4926695  29.2025043  22.7162072  52.7912250  30.1101036  20.8965079
  53.6075592  30.5892725  20.3506485  52.4712330  29.2437655  20.3061417
  51.6212723  31.1254195  21.0551021  51.7925260  31.9169328  21.7882482
  51.4361420  31.6235377  20.0527078  50.3447451  30.4181325  21.5288586
  50.0315156  29.6585720  20.8158626  50.5031064  30.0781045  22.5665015
  49.2752993  31.4086691  21.5159629  48.6746121  31.4025609  20.7274349
  49.0057709  32.3616639  22.3819010  49.8914005  32.6865985  23.2877218
  50.7860791  32.3666216  23.2283459  49.6674371  33.4677212  23.9291893
  47.7967808  32.9202059  22.3973928  47.1398692  32.7097942  21.6876435
  47.5367711  33.6682555  22.9543315  54.3339685  28.4768318  21.8907977
  55.5019450  28.6121593  22.2307283  53.7211066  27.3939430  21.5327969
  52.6860803  27.4570686  21.4316761  54.3601360  26.0505687  21.3458936
  54.4144100  25.5921773  22.3047098  53.5383335  25.0095771  20.4922715
  53.4473844  25.5333320  19.5292441  54.1631251  24.1510354  20.3784594
  52.3120407  24.7385790  21.0959118  51.7429976  25.4706383  21.1680373
  55.7901389  26.1891505  20.7824443  55.8758379  26.3171995  19.5700672
  56.8545110  26.0511809  21.5987109  56.6328069  25.8200878  22.5299474
  58.2432326  25.8049693  21.1435775  58.3797492  26.4321148  20.3024019
  59.2575984  26.2269608  22.2560935  60.2930494  26.1983131  21.9175699
  59.1698496  27.2823390  22.5577116  59.0947623  25.4103363  23.4815506
  59.8208966  24.3744893  23.8332448  60.6235488  23.9191547  23.2522650
  59.4017005  23.8589883  24.9958448  59.8601411  23.1318378  25.5064761
  58.3151949  24.4958541  25.4215566  57.4482978  24.2350315  26.4912877
  57.5471553  23.3491179  27.0785019  56.3370383  25.0938940  26.7227665
  55.5656221  24.9056356  27.4951059  56.1076579  26.1730742  25.8996964
  55.2773299  26.7852989  26.0870001  57.0047858  26.4440259  24.8531688
  56.7459877  27.2076124  24.1734658  58.1391174  25.5348286  24.5318480
  58.5199142  24.3432951  20.7294440  57.6965022  23.4565727  21.0756647
  59.6286528  24.1913034  20.0370252  60.0989658  25.0933214  19.7777856
  60.0302367  22.9644237  19.3146543  59.4810950  22.0797337  19.6699501
  59.6028496  23.0426253  17.8851635  59.9505480  23.9138161  17.3679734
  59.9740999  22.1011116  17.3563183  58.0968029  23.0245932  17.6718927
  57.3142803  22.1114286  17.9229247  57.4906117  24.1212996  17.2449956
  56.4891373  24.0734822  17.2078874  57.9636249  25.0217091  17.0094255
  61.5342283  22.6554888  19.5391193  61.9683369  21.4901341  19.4169027
  62.3325697  23.6524807  19.8866174  61.9676438  24.5867938  19.6402240
  63.6675992  23.4556923  20.5355783  63.6261212  22.6212318  21.2310958
  64.6735783  23.0067309  19.3804561  64.2810536  22.1365087  18.8564950
  64.7210868  23.8611482  18.6367045  65.9789776  22.5936710  19.7566558
  66.5977155  23.2594419  19.3638028  64.1619246  24.7225745  21.2094441
  63.7850803  25.8016627  20.7755037  65.0685886  24.6902031  22.1328479
  65.3166375  23.8024324  22.5827073  65.7975233  25.8302052  22.6688701
  66.8932467  25.6624541  22.6588978  65.5689351  26.6599055  22.0230106
  65.3770579  26.1803613  24.0739073  65.8725688  27.0762900  24.7598251
  64.4428326  25.3673690  24.6297455  64.0845129  24.5421847  24.0181075
  63.7765550  25.6620382  25.9783642  64.3865150  26.3245266  26.6354384
  62.3970199  26.4779070  25.7966242  61.6143842  25.8823816  25.4598596
  62.0360358  26.7834989  26.7704861  62.5562083  27.6722020  24.8984305
  62.8970660  29.0024044  25.2970796  63.0155498  29.7054141  24.1154789
  63.2112787  30.8162777  24.1682614  62.9200523  28.9157773  23.0236091
  63.0524311  29.1615975  22.0800601  62.6003385  27.6503195  23.5327452
  62.4030142  26.7955489  22.8936062  63.6298735  24.3823243  26.8200511
  62.6253634  24.1352544  27.4525436  64.7319616  23.5869257  26.7703598
  65.3982347  23.8921736  26.0712251  64.7796405  22.2769151  27.4215970
  63.9118713  21.6717670  27.1036463  66.0182214  21.5030697  26.9189303
  66.8378277  22.1586803  27.0313908  66.1120223  20.6458411  27.5812794
  65.9246328  20.9543517  25.4630208  66.9035780  20.5194395  25.2920399
  65.1285739  20.2312867  25.3547651  65.7901197  22.0389709  24.3740106
  64.9996034  21.8551891  23.4893289  66.6431549  23.0138789  24.4429833
  64.6956300  22.4180858  28.9427221  64.1270866  21.5803496  29.6302334
  65.1805286  23.5681365  29.5321948  65.5469067  24.2254271  28.9024211
  65.0850979  23.9044508  30.9857710  65.4712525  23.0592773  31.6171334
  65.7968148  25.2718024  31.2426161  65.9626066  25.3216722  32.3091892
  66.8386581  25.3636076  30.8367747  65.1086351  26.5249650  30.7299101
  65.3079248  27.1185658  29.5555483  66.0804001  26.9076891  28.7972367
  64.3818015  28.1566412  29.4729600  64.2849082  28.7201736  28.6425960
  63.6690914  28.3127055  30.6496557  62.6015527  29.1436946  31.0398929
  62.2926593  29.8945157  30.3537519  62.0989452  29.0663219  32.3547772
  61.2290814  29.6356205  32.6653966  62.5662731  28.0613069  33.2384407
  62.2655259  28.0033057  34.3202052  63.6131970  27.2003100  32.8639932
  63.9666018  26.4878024  33.6529974  64.1576211  27.2753514  31.5170120
  63.6945944  23.9540316  31.5266366  63.5296322  23.7817546  32.7492547
  62.7155177  24.2359461  30.6470260  63.0243719  24.4873155  29.6482637
  61.3340267  24.1043919  31.0552881  61.2018137  24.7889465  31.9154764
  60.4941009  24.6927359  29.9364388  60.6047441  24.0645188  29.0065864
  59.0326790  24.4805908  30.1697026  58.7665927  23.4534581  29.9629624
  58.7254720  24.8008994  31.1111201  58.4361164  25.1111184  29.4603265
  60.8313319  26.1725475  29.6457661  61.8616304  26.3125959  29.3208572
  60.1853744  26.5920376  28.8779081  60.6620004  26.6681223  30.5616604
  60.9434341  22.7136279  31.5106749  60.1200602  22.5647947  32.4155039
  61.4497525  21.6939021  30.8806284  62.1877951  21.8918039  30.2123095
  61.0693355  20.2965353  31.0053507  60.1498274  20.1528905  31.6213227
  60.6357988  19.7303069  29.6230269  60.5045103  18.6709387  29.8264344
  59.3474382  20.2281838  29.0189186  58.4258138  19.8908829  29.5412018
  59.3483035  21.2847216  29.1291510  59.2714599  19.8705678  27.9475240
  61.6625951  19.9554787  28.6688960  62.3991351  19.3941962  28.7831587
  62.1137223  19.3209791  31.6550003  61.6822391  18.3150326  32.2577870
  63.3984376  19.6480423  31.6223322  63.8088586  20.4028974  31.0440719
  64.4250153  18.8545538  32.2902850  64.2372992  17.8359514  31.9682849
  65.8851346  19.1815329  31.9167291  66.2528350  20.1226790  32.3375427
  66.5121787  18.4313794  32.3965264  66.3501992  19.0588460  30.4098065
  67.4991163  19.3947139  30.1208599  65.5747322  18.5885677  29.5439268
  64.2590338  18.9310934  33.8663942  64.5811002  17.9699755  34.5467994
  63.8243990  20.1161408  34.3996525  63.4705699  20.7899935  33.7196770
  63.6680735  20.3692515  35.8259414  64.6306343  20.1758972  36.3537991
  63.3275341  21.8672302  36.0241593  64.1268569  22.4125082  35.4305583
  62.4548495  22.0232723  35.3913419  62.9947497  22.3352604  37.4244770
  61.7531138  21.9927901  38.0970299  61.0922013  21.3044614  37.4918448
  61.6110827  22.3007568  39.4557362  60.6659605  22.1123837  39.9593261
  62.5626841  23.1379741  40.0964518  62.5316331  23.3401020  41.1421401
  63.6719041  23.6298226  39.3699579  64.5286250  24.1230902  39.8878897
  63.9011133  23.2116972  38.0221693  64.8270616  23.3913487  37.5627507
  62.7622071  19.4111929  36.4674973  61.6174670  19.3681221  36.0645075
  63.1632876  18.6777665  37.4679207  64.1282850  18.7654016  37.7930218
  62.1944477  17.9027977  38.2509970  61.4423842  17.6185043  37.5325106
  62.8602291  16.6856554  38.8108627  63.5892986  16.3844380  38.0263559
  63.4762132  17.0227224  39.6679214  61.8277400  15.5736525  39.1287008
  61.0405309  15.9113869  39.8443975  61.3300508  15.1326187  38.1951280
  62.6014156  14.4450815  39.8971693  63.0525977  14.9105183  40.8107707
  61.9569911  13.6612944  40.2971600  63.6706703  13.6290127  39.1296274
  64.4622575  14.2540785  38.9809958  64.0118725  12.7532133  39.7334339
  63.1532048  13.0123236  37.9174008  63.7202517  12.2781511  37.4692893
  62.2582920  12.6621573  38.0915211  63.0417936  13.7419545  37.1881263
  61.6023699  18.7181626  39.4429746  62.3058862  19.4195915  40.1585934
  60.3267316  18.5456700  39.7131298  59.8488387  17.9316065  39.0321857
  59.5073525  19.1704620  40.7309297  59.0503347  18.4667093  41.4408442
  60.1543734  19.7266938  41.4320999  58.3465041  20.0459323  40.1897959
  58.2825360  20.4926041  39.0345629  57.3389754  20.3083174  40.9897707
  57.4577253  19.9197875  41.9263978  56.1110654  21.0801590  40.6404512
  55.6064310  20.6517052  39.7409060  55.1286761  20.9395525  41.7709190
  55.6760356  21.0241653  42.7098209  54.4180874  21.8148853  41.7421135
  54.3685151  19.6031987  41.8577221  53.5502011  19.5350601  41.1272811
  55.1201172  18.8119775  41.6726995  53.6628501  19.3522726  43.2070223
  54.4395836  19.2933750  43.9171448  53.1348917  20.2661332  43.5734659
  52.7873941  18.1013572  43.2755417  52.0783513  17.9918785  42.4071021
  53.5011468  17.2546349  43.1817457  52.2239809  18.0734900  44.6685231
  53.0045902  17.8603552  45.2832646  51.7602705  18.9211521  45.0495591
  51.5174573  17.3369675  44.7309853  56.3594771  22.5103887  40.1907821
  56.6361336  23.3372120  41.0565769  56.2104048  22.8528641  38.8935997
  55.9526560  22.0789918  38.3789952  56.2280863  24.2285089  38.3311008
  56.9162135  24.8557796  38.9605656  56.8790160  24.0421510  36.9722564
  56.0826658  23.5164237  36.3334758  57.1919426  25.4172106  36.4507597
  57.9516007  25.2978904  35.6257321  56.3011888  25.9666160  36.1618428
  57.6701815  25.9900595  37.2367916  58.1801915  23.2776844  36.9775004
  57.9372577  22.2829420  37.2111959  54.7881204  24.7190036  38.2358724
  53.8296314  23.9593552  38.0203458  54.6278211  26.0296828  38.3395530
  55.3759458  26.4821366  38.8538181  53.3964928  26.7372156  38.1029492
  52.6982798  26.0184745  37.6403884  52.8201606  27.3004552  39.4424668
  53.7141991  27.7856429  39.8545333  51.7921512  28.3958539  39.2838217
  50.8008249  27.9717244  39.0579513  51.6527859  29.0571982  40.1288263
  51.9908799  29.0398536  38.3987344  52.3129851  26.3274414  40.5043576
  51.2684983  25.9700490  40.2372850  53.0199385  25.5204062  40.5889404
  52.2071841  26.8752051  41.4455132  53.7992840  27.8219910  37.0656442
  54.8864221  28.4701837  37.1483503  52.9127434  28.0537033  36.0631928
  52.1216178  27.5165474  35.9594266  53.3237405  28.8598821  34.8631674
  54.1941975  29.4259891  35.0766745  53.6827282  27.9906854  33.6515317
  54.3027100  27.1444649  34.0271032  52.7262208  27.6031133  33.2340242
  54.4157505  28.6950787  32.4426858  54.6612618  30.0548297  32.3181095
  54.1788832  30.8249612  32.9323192  55.2211016  30.2854361  31.0698195
  55.4393531  31.1687527  30.5726068  55.6892028  29.0852124  30.5444272
  56.3736218  28.8311998  29.3186533  56.4617438  29.7309982  28.6401701
  56.7055636  27.5437244  28.9558823  57.3399722  27.3394880  28.1365166
  56.1715948  26.5073816  29.7754433  56.4255942  25.4685210  29.5497092
  55.3734270  26.7740710  30.8894172  54.9842715  25.8598687  31.3477878
  55.1183763  28.0751069  31.3788486  52.1866211  29.8809873  34.4509992
  51.0640411  29.5247267  34.0780279  52.4272339  31.1433233  34.7851920
  53.3430217  31.4050295  35.0865884  51.4693025  32.2136361  34.6182177
  50.5250460  31.8393459  34.9452296  51.9230635  33.3982890  35.5463925
  52.9624727  33.5956211  35.3679835  51.3787019  34.3206885  35.3364985
  51.5951117  33.0862449  36.9949442  52.6518064  32.8305793  37.8835732
  53.6866050  32.8098307  37.5536160  52.4044871  32.6808324  39.2518520
  53.1846247  32.3554836  39.8832556  51.0654114  32.7141352  39.6800562
  50.7661435  32.4917374  40.6937344  49.9749498  32.9418201  38.7558645
  48.9861312  33.0167195  39.1449385  50.2626818  33.1478585  37.4211693
  49.3957490  33.3866849  36.7967096  51.2745309  32.5560238  33.1360069
  52.2481935  32.5805866  32.3822565  49.9897985  32.9076253  32.7988947
  49.3099799  32.8395013  33.5709324  49.5539999  33.1326154  31.4335150
  50.4995136  32.9749031  30.7880466  48.4986232  32.1032943  30.9138271
  48.3777271  32.3617053  29.7996614  49.0716193  30.7044633  31.2091620
  48.4805814  29.8355517  30.7500153  50.1053439  30.6324570  30.8941281
  48.9699989  30.3935728  32.2350647  47.1024053  32.1136100  31.6190452
  47.3064918  32.0934414  32.7279980  46.6101263  33.1116700  31.4721686
  46.4065224  31.3695859  31.2904032  49.0145705  34.5414495  31.2361554
  48.1917914  35.0450136  32.0851902  49.3286795  35.1682464  30.0856180
  50.3961202  34.7892847  29.1019846  50.1551851  34.0714740  28.3255676
  51.2751901  34.3915659  29.5361899  50.8382377  36.1493542  28.6099103
  51.4739014  36.0883870  27.7143551  51.2353721  36.6965935  29.4609213
  49.5022411  36.6824158  28.1666464  49.1205883  36.3076477  27.2649033
  49.7462308  37.7146580  28.1156316  48.7012488  36.3771340  29.4490593
  48.8800446  37.2406314  30.0984542  47.2028188  36.2102213  29.1681965
  46.3199392  37.0859251  29.4036768  46.8241062  35.0452299  28.5531699
  47.5128665  34.2712205  28.5128149  45.4157880  34.7185910  28.2221564
  44.7284919  35.4286513  28.7649575  45.3639837  35.0575668  26.7201623
  44.3423878  35.0751673  26.3797619  45.6841448  36.1065184  26.4911825
  46.0876707  34.1687939  25.9151198  46.2361689  34.5537703  25.0484091
  45.0329400  33.2582464  28.5511235  45.8888352  32.3750668  28.5486720
  43.7113187  32.9832970  28.5622754  43.0607181  33.7017478  28.6584159
  43.2529987  31.5394148  28.5071332  43.7373517  31.1398119  29.3907312
  41.7727236  31.3696926  28.8138848  41.1389475  32.1174041  28.3258103
  41.1104352  30.0778559  28.4494859  41.4803242  29.3066853  29.1714375
  40.0042377  30.1351827  28.6229276  41.3002934  29.7671602  27.4060501
  41.4745293  31.7871393  30.2617248  41.7666979  30.9631844  30.9558334
  42.0823831  32.6820667  30.5349008  39.9909013  31.9785634  30.5460006
  39.6079148  30.9510024  30.5871102  39.9180849  32.4880807  31.5169936
  39.5546100  32.6467881  29.7484444  43.8007135  30.7753391  27.2393514
  44.1429974  29.5939143  27.2924993  43.8852327  31.5044426  26.1006007
  43.5923231  32.4778762  26.0978219  44.3659477  30.9713428  24.8200338
  43.8747835  30.0171087  24.6522496  44.0709890  32.0071324  23.7632923
  43.0297538  32.1573509  23.8232906  44.4220778  32.9819211  24.0643278
  44.4157787  31.7188313  22.2675708  45.4489685  31.5925125  22.1789563
  44.0554686  30.7540038  22.0408205  44.0100655  32.7625247  21.2056807
  44.3985106  33.7345278  21.5236879  44.4223041  32.5103810  20.2417043
  42.5022515  32.8490517  21.0224056  42.2157796  33.1486188  22.0018684
  42.2662522  33.7398811  20.4751789  41.7019203  31.7282126  20.4692636
  41.7378775  31.7730215  19.4430796  42.0773164  30.8568262  20.7562097
  40.7406607  31.7809240  20.8445882  45.8595860  30.6356486  24.8297042
  46.2678028  29.6834618  24.1647399  46.7179856  31.3153492  25.6003639
  46.4059949  32.0561627  26.1963289  48.0998176  30.9805552  25.7181839
  48.4899993  30.8268452  24.6583039  48.8791402  32.1377677  26.3251444
  49.9071280  31.9169890  26.3278939  48.6729430  33.0479146  25.7040031
  48.5590152  32.2982844  27.3761626  48.1589743  29.6509038  26.5737273
  48.9170783  28.7601967  26.2380351  47.3570011  29.5259629  27.6122632
  46.8139764  30.3142558  27.9375639  47.3538001  28.3182704  28.4098868
  48.3217762  28.1020482  28.9220031  46.5927616  28.5311068  29.1911526
  47.0115886  27.0230439  27.6446130  47.5279674  25.9844295  27.8959274
  46.0761541  27.1274940  26.6984172  45.4726384  27.9156837  26.7165781
  45.7681157  25.9687406  25.8106858  45.4542347  25.1227682  26.4641768
  44.5592400  26.3590463  24.9046063  44.9009747  27.2166182  24.3412047
  44.3090548  25.4801775  24.2141893  43.2318775  26.6560699  25.5532100
  42.2269148  26.9362681  24.8433557  43.1170368  26.7737209  26.8569473
  42.2160399  27.0935268  27.2047804  43.8540133  26.5591947  27.5098262
  46.9462513  25.4657647  24.9732714  47.1588780  24.2640137  24.8393318
  47.7308891  26.4104321  24.4725341  47.5081711  27.3652788  24.6205345
  48.9999299  26.1258130  23.7058275  48.7569780  25.4536003  22.8407404
  49.4202390  27.4721649  23.1196858  48.7168323  28.2393347  23.1417452
  50.2357537  27.8945954  23.6577975  49.6330666  27.2210848  21.6521448
  48.6403515  27.1105716  20.8694364  50.7871935  27.0559508  21.2419580
  50.1286658  25.6524922  24.6375069  50.8180939  24.6994737  24.3036931
  50.2501852  26.2823076  25.7945652  49.7257292  27.1940697  25.9004697
  51.3233472  25.8586739  26.7489196  52.2346893  25.8843091  26.1814374
  51.3844808  27.0263918  27.8268783  50.4737764  27.1707879  28.2596270
  52.3398112  26.5436524  28.9247978  53.2987466  26.4062416  28.5146267
  52.4165856  27.2637280  29.7529553  51.8460575  25.5964327  29.3434977
  51.7911867  28.3319777  27.1911386  52.8257349  28.2724342  26.8161979
  51.1052097  28.6646235  26.4035149  51.7846424  29.4225824  28.3637619
  52.7090524  29.2876899  28.9456889  51.8450223  30.4145844  27.9497205
  50.9010846  29.4018534  28.9239961  51.0863736  24.4303624  27.1985276
  51.9598391  23.5204047  27.2324633  49.8210198  24.1375565  27.5657075
  49.0668781  24.7834609  27.3693425  49.3450368  22.7678493  27.9974132
  49.8827082  22.5058225  28.8904827  47.9007655  22.8464772  28.4054996
  47.4002442  23.0690708  27.4308740  47.5280597  21.8380159  28.7135912
  47.6825867  23.5605035  29.1559733  49.5443289  21.7042241  26.8979506
  50.1553422  20.6662204  27.1248640  49.2051687  22.0780175  25.6236294
  48.5912401  22.8387512  25.4376945  49.4317624  21.1230316  24.4950219
  49.1628416  20.0923519  24.7775040  48.6089536  21.5880265  23.2608272
  47.6452150  21.8086073  23.5035528  49.1227414  22.4294032  22.7509783
  48.5633739  20.7185672  22.5926843  50.9258866  20.8568153  24.1934290
  51.3379648  19.6972797  24.0013414  51.7742115  21.9272019  24.3499011
  51.4782824  22.9162943  24.3891993  53.2478781  21.5767310  24.2268462
  53.4224961  21.0571244  23.3040659  53.8564700  22.9884127  24.2487509
  53.2199409  23.6781908  23.6903247  53.8985718  23.3138986  25.2682256
  55.5695836  22.9703519  23.6914247  55.3213345  22.7056881  22.4289652
  53.8013173  20.7709679  25.3555439  54.4693369  19.7945670  25.1402528
  53.3990058  21.0841407  26.5919115  52.7465983  21.8035396  26.7325977
  53.8719606  20.2459588  27.7208043  54.9692420  20.1875578  27.7419103
  53.4371700  20.8939860  29.0614045  52.4128282  21.2623468  29.0915611
  53.7076938  20.1005755  29.7722426  54.2981670  22.1083537  29.4593609
  54.2743696  22.8165944  28.6594467  53.6582376  22.8304314  30.6720771
  54.3885285  23.4923105  31.1887752  52.9008067  23.4912701  30.2774227
  53.1242947  22.1188968  31.3396345  55.7628844  21.7843334  29.8511931
  55.6461104  21.2209408  30.7604342  56.2892890  21.2988881  29.0516882
  56.3625757  22.7101995  29.9986377  53.3839547  18.8029744  27.6484266
  54.1142376  17.9070397  27.8773119  52.0945485  18.5444849  27.2286303
  51.4197561  19.3251115  27.0459654  51.5664392  17.2113918  26.9784882
  51.6346525  16.6534519  27.8682823  50.0528928  17.2716931  26.5146429
  49.9698392  17.9553612  25.6655370  49.8635962  16.3797815  25.9455993
  49.0914224  17.5507392  27.7073278  49.0420815  16.6198632  28.2309901
  49.3813723  18.4187430  28.3104799  47.6933195  17.7809511  27.0590794
  47.6290910  18.5404427  26.2807881  47.5118817  16.8476658  26.5893653
  46.6925020  18.0566065  28.1537994  46.8845988  17.6540024  29.0424308
  45.6099855  18.8835322  28.1778811  45.3818112  19.8081710  27.2687567
  46.0106420  19.8358443  26.4075435  44.5002503  20.2832051  27.3469065
  44.8334692  18.8401323  29.1611237  45.0552163  18.1790433  29.8849931
  44.0270637  19.4026799  29.4349251  52.4745527  16.4385576  26.0183874
  52.8455528  15.2917972  26.1705298  52.8857641  17.1288525  24.9472945
  52.6782162  18.0951315  24.8448990  53.7947097  16.6093653  23.9094447
  53.3418438  15.7352233  23.4795983  53.8878545  17.5435955  22.6724592
  52.8992178  18.0127827  22.6207345  54.4523409  18.4716312  22.7840086
  54.3289255  16.8481016  21.3627272  55.3907579  16.4672334  21.5457471
  53.6406539  15.9708961  21.1769296  54.3255205  17.7914341  20.2577342
  55.1516919  18.5526468  20.3802843  54.5395068  17.1919269  19.3730804
  52.9643918  18.4746946  19.9258947  52.2187251  17.7061760  19.9683420
  52.7433014  19.1940259  20.7090573  52.9004425  19.2161566  18.5842578
  52.2402783  19.9661756  18.6083069  53.8100538  19.7470020  18.5060002
  52.8996372  18.7452456  17.7181393  55.2211440  16.2283783  24.3229633
  55.7882489  15.2221723  23.8505312  55.7126645  17.0882357  25.2521062
  55.0804498  17.8614170  25.5582219  56.9249009  16.9287856  25.9347947
  57.6847934  16.4225930  25.3438679  57.3745400  18.3195357  26.2844020
  56.6536608  18.8994160  26.8360761  58.1042980  18.2144146  27.0693374
  58.0142406  19.0856899  25.1310176  58.9008260  18.6500140  24.4113586
  57.5514163  20.2973339  24.9369586  57.8667227  20.7634221  24.1258456
  56.8660267  20.6962746  25.4682460  56.7774943  16.0199629  27.2080309
  57.6864535  16.0174172  28.0577114  55.6668322  15.2631298  27.3305422
  54.8991692  15.3234479  26.6437333  55.5063909  14.1203848  28.2665765
  54.6285288  13.5913327  27.9148996  56.2772611  13.4707042  28.1937509
  55.2819333  14.5388310  29.7714383  55.1821946  13.6610809  30.6317471
  55.0690209  15.8537843  30.0589490  54.8618828  16.4675679  29.3029558
  54.6342370  16.4044306  31.3706241  55.0106014  15.7541578  32.0873605
  55.1301996  17.8704577  31.5241294  55.3096858  18.4645544  30.6301915
  54.3659298  18.4518153  31.9582169  56.4702260  18.0074501  32.3177007
  56.9200759  19.0410208  32.3458808  56.2396043  17.6459945  33.3508507
  57.5085041  17.0490633  31.6182367  57.3821993  15.9904923  31.7054499
  57.6028953  17.2974479  30.5844672  58.8839973  17.1067327  32.3226020
  59.3849193  17.9385790  31.8470913  58.9736615  17.2010994  33.4382033
  59.6281601  15.8697896  32.0092094  59.3333753  15.5658093  31.0318238
  60.6196585  16.0942742  32.1441507  59.3912779  15.0892622  32.5862945
  53.1626949  16.2595181  31.6956242  52.3317065  16.6757741  30.8916912
  52.7816291  15.7949788  32.9340549  53.4581203  15.4964236  33.5889916
  51.4031797  16.0469273  33.4788101  50.6810217  15.6357977  32.8047752
  51.3361776  15.3095446  34.8301165  52.0219446  15.6830467  35.6290106
  50.3237864  15.4078227  35.2262946  51.6046308  13.8191848  34.7358957
  50.9305553  13.3014290  34.0253278  52.6002559  13.7452038  34.3582864
  51.4882302  13.2210435  36.1434436  51.9607788  13.8690166  36.8961227
  50.3928277  13.2181445  36.3388125  52.0152810  11.8217111  36.1790004
  51.2008108  11.2110980  36.6573968  52.0561730  11.4479491  35.1735077
  53.2283664  11.6379509  36.9189211  53.2310203  12.3028987  37.6808527
  53.3046326  10.6968807  37.3169224  53.9610967  11.8428747  36.2092379
  51.1345083  17.5314246  33.6125685  51.8603632  18.3334535  34.2795164
  49.9652977  17.9049935  33.1949293  49.3390895  17.1534853  32.8996120
  49.4430552  19.2501167  33.1988206  50.1689512  19.9362672  33.7441999
  49.4936984  19.8881753  31.7980530  48.7071047  19.5370702  31.1935641
  49.3584398  21.3948763  31.8377599  50.1435787  21.7695330  32.5378159
  49.4518733  21.8405131  30.8135735  48.3732364  21.7052119  32.2273016
  50.6550838  19.5051913  30.9126299  50.6210566  18.4201998  30.7427948
  50.6111361  19.9923018  29.9462951  51.5517781  19.6364374  31.4644065
  48.0500986  19.3919032  33.8000494  47.1726508  18.6084000  33.5488522
  47.8869752  20.4081519  34.6340766  48.7180966  20.9402083  34.8991254
  46.7134445  21.0491351  35.1443352  45.8632024  20.4107388  34.7176969
  46.6077653  20.9584653  36.6856695  47.2780354  21.7260873  37.1660070
  45.1846193  21.3398380  37.0739479  45.1083695  21.3973676  38.1533561
  44.8978642  22.2727917  36.6805419  44.5848239  20.5569969  36.7024326
  47.0034396  19.5257385  37.1823996  46.3590650  18.7166374  36.7904589
  48.0452704  19.3022734  36.8959460  46.9265553  19.3970773  38.7255659
  45.8846947  19.5556926  39.0512035  47.1256372  18.3798298  38.9895856
  47.6625256  20.0421750  39.2892004  46.4966336  22.4929850  34.6114154
  47.3735393  23.2603286  34.9266891  45.3735092  22.8683531  34.0102800
  44.6653857  22.1632003  33.8828320  45.0014144  24.2712439  33.5908421
  45.8949472  24.9058672  33.4002938  44.2930723  24.2109908  32.1582063
  43.6715202  23.2850110  32.0442637  43.5878343  25.0060835  32.1579422
  45.2772305  24.2441951  30.9989911  45.8952921  25.1572864  31.0330154
  46.0149706  23.4076672  31.0215625  44.6007429  24.2156453  29.6132265
  44.5674138  25.2123862  28.9284577  44.0217299  23.1517661  29.2060067
  43.6846183  23.1480244  28.2585701  43.9715867  22.3088466  29.8572659
  43.9870286  24.8585418  34.6092944  42.9360803  24.2463391  34.8149219
  44.2539599  25.9658426  35.2954562  45.1353053  26.4785176  35.1786441
  43.2796982  26.6970868  36.0575652  42.4140658  26.0177849  36.2644993
  43.9620925  27.1128640  37.3597488  44.7181891  27.8893756  37.1430412
  43.1978956  27.5254630  37.9707130  44.5418037  25.8887001  38.1456920
  45.2802950  25.3215319  37.5051964  45.2761695  26.3784131  39.4080696
  46.1348015  26.9255938  39.2637400  44.5814753  27.0397654  39.9030867
  45.4882653  25.5323717  40.0454588  43.4886693  24.9058347  38.5470862
  42.7751440  25.3970698  39.1979626  43.1208435  24.5083444  37.6523760
  43.8945017  24.1155307  39.0972196  42.8700033  27.9159307  35.3128885
  43.7340803  28.7355362  34.9497398  41.5903433  27.9526639  34.9362039
  40.9288041  27.1623025  35.2073843  40.9157312  29.1965320  34.4845053
  41.5193822  30.0970580  34.7366525  40.7324033  29.2801608  32.9952017
  40.3985303  30.2735063  32.6869861  41.6474918  29.1390330  32.4273997
  39.7728186  28.2814455  32.5567994  40.0147731  27.8726608  31.6767846
  39.5300491  29.2762926  35.1590952  39.0880936  28.2660262  35.6886581
  38.7172330  30.3259780  34.9411555  39.2854231  31.0645046  34.5505773
  37.2829488  30.4723348  35.1950453  37.1214141  30.3531658  36.2177588
  36.7048657  31.8190565  34.6304699  35.6876690  31.9609797  35.0631825
  37.3990537  32.6655144  34.9219632  36.5008805  32.0192713  33.1174087
  37.4516435  31.8830438  32.6446482  35.8083388  31.2815658  32.7675503
  35.9890307  33.4482985  32.9581643  35.0879430  33.5900148  33.5149781
  36.7119715  34.0651254  33.4540562  35.9041558  33.9515805  31.5397148
  34.9577173  34.0200909  31.1238101  36.9473649  34.4054925  30.8338307
  38.1165694  34.5855416  31.3090412  38.3823982  34.4008008  32.2627477
  38.8785362  34.9131809  30.6678014  36.7381095  34.7593421  29.5846457
  35.7959045  34.6447634  29.2029897  37.6217270  34.9617568  29.0314571
  36.4280341  29.3988228  34.5822909  35.2563529  29.3236686  35.0324012
  36.9089385  28.7036525  33.5897585  37.9274608  28.7696039  33.6229493
  36.2032109  27.6064208  32.9289780  35.1341100  27.7891163  33.1179403
  36.3211321  27.7431313  31.3442349  37.4216871  27.8546516  31.1504041
  36.1178700  26.7609511  30.8967122  35.4755308  28.8204822  30.5902697
  35.5923779  29.7450883  31.0777638  35.8807986  28.9153732  29.5869917
  33.9591192  28.4717068  30.4672929  33.7721457  28.0087367  29.4807061
  33.6622061  27.7807639  31.2975509  32.9447474  29.6321663  30.5187737
  33.1244150  30.0768336  31.5149550  33.1279417  30.3365256  29.6754581
  31.5356819  29.1532829  30.4257997  30.9277004  29.9410805  30.5076391
  31.4417608  28.6877706  29.5357754  31.3039870  28.4617335  31.1565162
  36.6245698  26.2611814  33.5285339  35.8437335  25.3573248  33.4560458
  37.6960532  26.0850319  34.1747268  38.3399889  26.8854616  34.2228723
  38.2198535  24.8066305  34.6876517  37.6602855  23.9072775  34.3648140
  39.6440092  24.5587006  34.1628076  39.8251602  23.4860072  34.3363359
  39.8293569  24.7764973  32.6600193  40.7811994  24.3316001  32.3129236
  38.9200558  24.3600215  32.1218629  39.9394437  25.8754725  32.4316788
  40.6222456  25.3811587  34.7535718  41.3918465  24.8048339  34.8457268
  38.2859139  24.6267542  36.2056896  38.2695024  23.4830167  36.6831788
  38.2375225  25.6671815  37.0573463  38.2655115  26.5362216  36.5968780
  38.4792356  25.7126307  38.5083196  39.5340609  25.5380827  38.6448945
  38.2355555  27.0734166  38.9100019  38.9540091  27.7443155  38.4192221
  37.2252944  27.3498164  38.5996267  38.0657586  27.2925403  40.4274898
  39.1007897  27.6283838  41.2947084  40.0609942  27.9971130  40.9029448
  39.0315220  27.5875602  42.7102324  39.9461739  27.8226175  43.2677687
  37.7670410  27.2847987  43.2281927  37.5979498  27.2764932  44.2976836
  36.7032316  27.1036900  42.4038865  35.7913653  26.9279508  42.8769970
  36.7945174  27.0607210  41.0160472  35.9117045  26.9315765  40.4306467
  37.6967664  24.6367394  39.3362235  38.2831114  24.0402794  40.3048817
  36.4811449  24.2763043  38.9030876  36.3119548  24.6293196  37.9565101
  35.5708514  23.3059862  39.5613096  35.3679562  23.5356474  40.6356395
  34.1535691  23.1889641  39.0446044  34.2378881  22.8837726  37.9686788
  33.6438056  22.3981305  39.5923883  33.3727730  24.4867615  38.9976471
  32.2527102  24.5408712  38.4752743  33.9156097  25.5538007  39.3457852
  36.1546685  21.9164004  39.6577254  35.9528414  21.1462775  40.5875318
  36.6853218  21.4475655  38.5097025  36.8608310  22.0789746  37.7191686
  37.3351596  20.0844529  38.3405009  36.9504612  19.4208864  39.1220405
  37.0200460  19.5234796  36.9827504  37.3627587  18.4527463  36.8753543
  36.0099477  19.6697705  36.7941737  37.7300639  20.2263687  36.0346773
  38.6813973  19.9088493  35.9939869  38.8209497  20.1565584  38.6344902
  39.3397402  19.1550944  39.1431147  39.4949959  21.3290880  38.5064183
  38.9921592  22.1469204  38.2063708  40.9416556  21.3318369  38.6096911
  41.2119726  20.2777347  38.4127414  41.6242451  22.0542698  37.3878231
  41.3469465  23.1223637  37.4560834  42.6278327  21.8675602  37.4424180
  41.1010270  21.5759458  36.0833201  40.0308953  21.7528619  35.9530210
  41.6625261  22.0310638  35.3020656  41.2182997  19.9939475  35.9755771
  42.3408405  19.5512731  35.6849079  40.2067185  19.2485058  36.0772939
  41.6267423  21.8743586  39.8692801  42.7453158  21.4020285  40.1501178
  41.1287302  22.7838201  40.6098112  40.2478637  23.1574021  40.3265843
  41.7833532  23.3471869  41.7993849  42.7787171  23.4512055  41.5716513
  41.2110782  24.7358989  42.1084048  41.1877960  25.4091147  41.2537355
  40.1682597  24.5876478  42.5569419  42.0754492  25.4957055  43.0827950
  43.3344274  25.9536881  42.6512928  43.5891534  25.9592283  41.5661590
  44.1973653  26.6135713  43.5821704  45.0961544  27.0650540  43.2361783
  43.7970789  26.7835664  44.9471103  44.6036238  27.2627952  45.9034958
  44.2964760  27.1012780  46.8020752  42.5997505  26.2050017  45.3629061
  42.4411920  26.1849962  46.4301527  41.6696119  25.5776579  44.4318986
  40.6440961  25.1237309  44.5879860  41.7306334  22.4733729  43.0639091
  42.4716908  22.7135772  44.0513178  40.9737896  21.3691518  42.9637299
  40.3820108  21.2742013  42.1332245  41.0928021  20.2341928  43.9544861
  41.4771328  20.5869956  44.9285617  39.7704328  19.6025065  44.4229539
  39.2730019  20.4997832  44.7391970  38.9788608  18.9720929  43.3101010
  38.6497958  19.6252142  42.5350730  39.5786954  18.2629109  42.8503802
  38.0465911  18.5177866  43.6168372  40.1169988  18.6626010  45.5990557
  40.5411713  17.7722385  45.2691624  40.8363554  19.1005184  46.2426830
  39.2161774  18.3649560  46.1229245  42.2120212  19.3090532  43.4835841
  42.9549428  18.8251660  44.3569027  42.4327079  19.1586996  42.1628229
  41.8640004  19.6970939  41.5410064  43.5574417  18.3371250  41.6802648
  43.4610791  17.2751424  42.0414289  43.5392561  18.1146567  40.1487169
  43.5090193  19.0711345  39.5784439  44.4147657  17.5327530  39.8703586
  42.4243749  17.1891078  39.7293918  42.6694157  16.1340797  40.0018320
  41.4266999  17.4703187  40.0912086  42.2371092  17.1041332  38.1983074
  42.0758666  18.1022071  37.7247343  43.1426224  16.7677806  37.7838311
  40.9247211  16.3400067  37.8118696  41.0866202  15.2571838  38.1351290
  40.1950270  16.6630136  38.5509016  40.5585435  16.5740015  36.3782441
  40.2422033  17.5547190  36.2904830  41.3455340  16.3685193  35.8092696
  39.7750546  15.9867107  36.1287330  44.9501217  18.9420626  42.0148901
  45.8514532  18.1748204  42.2693136  45.1405372  20.2367981  42.0057140
  44.2521889  20.7945573  41.7541764  46.4738617  20.9389818  42.4684863
  47.3235247  20.4854394  41.9467852  46.4076619  22.4265107  42.1532436
  47.4278197  22.8821214  42.3955990  46.0938514  22.7383275  40.6677956
  45.0084609  22.8562279  40.3985797  46.5557691  23.7099621  40.5191367
  46.5075679  21.8967189  40.0479032  45.3458073  23.0358709  42.8433732
  45.6026693  23.7754814  43.4471990  46.6207034  20.9101190  43.9637977
  47.6339607  21.2883420  44.4771650  45.6574166  20.3096177  44.6890279
  44.9623522  19.9315474  44.1934762  45.7053995  19.9322109  46.1661856
  46.6762391  20.2306186  46.5554927  44.6050834  20.7056581  46.9380225
  43.5719663  20.4727969  46.5756990  44.8366076  20.4587179  48.0317079
  44.8448742  22.2164447  46.8885116  45.8488490  22.4330282  47.3662274
  44.6661460  22.5824705  45.8693541  43.8105444  22.9123922  47.8099465
  43.7842497  22.3629285  48.7663117  44.3515521  23.8913181  47.9709525
  42.4497239  23.0657934  47.2677485  42.3724795  22.7743077  46.2664557
  41.2783520  23.2197872  47.8716082  40.2074456  23.0722254  47.2137617
  40.1980792  23.1486063  46.1789613  39.3071614  23.1146093  47.6585405
  41.1923687  23.2774679  49.1538839  42.0899496  23.1665007  49.6852286
  40.2883457  23.1526000  49.5928038  45.7039444  18.4271728  46.5072105
  45.8651938  18.1536339  47.7148517  45.4957022  17.4865929  45.5882701
  45.6545817  17.8172341  44.6659807  45.1134984  16.0288291  45.8784436
  45.3633693  15.7702814  46.9360755  43.5404115  15.8874023  45.8078843
  43.2442450  15.7827310  44.8440198  43.0124081  14.8731696  46.7163752
  43.1861303  15.2015064  47.7440322  41.9228901  14.7130700  46.5744972
  43.6088871  13.9205964  46.5901327  42.9802066  17.0732897  46.3657515
  42.8347158  17.6361646  45.6238083  45.7628162  14.9067994  44.9699653
  46.3204747  13.9128492  45.4963021  45.7938285  15.1932823  43.7115206
  45.5178852  16.1310168  43.4902799  46.5070053  14.5446175  42.6019289
  46.2869282  13.4885155  42.6923710  45.8341652  15.2080908  41.3474884
  45.3077054  16.0742083  41.6771835  46.5883656  15.5423594  40.6430914
  44.8726620  14.3428903  40.6511026  43.6838649  14.2826256  40.9765279
  45.3002809  13.5631102  39.6653033  44.5697469  13.1073873  39.1064040
  46.1463729  13.7593657  39.1757051  48.0546560  14.7203951  42.6045384
  48.4915172  15.7473697  43.1783565  48.7541531  13.8846301  41.8647542
  48.3175831  13.0629830  41.4832933  50.1389691  14.0385573  41.5317415
  50.6307368  14.7410028  42.2274526  50.8568396  12.7134012  41.9073757
  50.4357308  11.9061590  41.3404446  51.9374122  12.8173885  41.7591581
  50.6534641  12.3786644  43.3503321  50.6816081  13.3487430  44.2023142
  50.3899664  11.1742752  43.6362637  50.3580550  14.5048058  40.0776670
  49.8461179  13.8379149  39.1730916  51.0507939  15.6385032  39.8286946
  51.5026400  16.0326625  40.6057933  51.0426854  16.4687850  38.6336595
  50.7107718  15.9361348  37.7386058  49.8866714  17.4695719  38.8029813
  49.9250482  18.1408237  37.9827431  48.9200499  16.8470027  38.8582566
  49.9332107  18.3245547  40.0707805  49.2721843  18.1633783  41.1979820
  48.6084232  17.3109105  41.3112851  49.5598477  19.2058502  42.0352598
  49.1275671  19.3155569  42.9314535  50.5619325  20.0609292  41.5891241
  51.0843359  21.2371766  42.0524301  50.8070346  21.7581271  42.9427446
  51.9257064  21.9990690  41.1785672  52.2575279  22.9737155  41.5132799
  52.1383594  21.4723403  39.8512092  52.7722373  22.0074695  39.1171509
  51.5549135  20.3195224  39.3623616  51.7776384  20.0912558  38.3350849
  50.7240866  19.5474914  40.2494715  52.4261111  17.0870516  38.3705959
  53.2421625  17.0431578  39.3125908  52.7677934  17.5910900  37.1760544
  52.1319583  17.5603774  36.4016352  54.0970722  18.1706722  36.8456229
  54.7149872  18.0727430  37.7295236  54.8515325  17.4062899  35.7327256
  54.3438951  17.5965755  34.7949601  55.8381449  17.7752953  35.5671535
  54.8329855  15.9167862  36.0055654  54.8702302  15.4539696  37.1509071
  54.7368795  15.1520152  34.9989442  54.2273244  19.6971495  36.6327898
  54.9851026  20.3954001  37.2919464  53.2731183  20.3020776  35.8223128
  52.6894909  19.6471472  35.3195791  52.9463846  21.7065381  35.6740641
  53.5900034  22.2410574  36.4051929  53.3599459  21.9721147  34.2162004
  53.2058918  21.0814843  33.6302815  52.6405235  22.6658727  33.8735464
  54.6951544  22.6163337  33.9515479  54.8025152  24.0016069  33.9244302
  53.9681767  24.5408913  34.1015620  56.0076107  24.6779165  33.6611727
  55.9669378  25.7474776  33.5748500  57.1452280  23.9606441  33.3281888
  58.0766178  24.4346349  33.0564030  57.0724275  22.5427575  33.4378933
  57.8936935  21.9239884  33.1044887  55.8869295  21.8460625  33.6902790
  55.8124481  20.7632506  33.5770896  51.4495403  22.0329689  35.9824547
  50.4493856  21.3814528  35.6425797  51.2639426  23.2049795  36.5870526
  52.0887998  23.5764733  36.9345239  50.0622236  24.0050390  36.6295656
  49.2127227  23.3774849  36.3776087  49.8403253  24.6167207  38.0450742
  50.8261046  24.8802236  38.4198674  48.8839945  25.8013306  38.0118899
  49.1943477  26.6488973  37.4242826  47.8509076  25.5839017  37.7020726
  48.7668792  26.1899284  39.0440292  49.1530170  23.5573323  38.9362277
  48.1163157  23.4124617  38.7060450  49.8338547  22.6861510  38.8696941
  49.1713720  23.9639738  39.9036937  50.1877618  25.1887005  35.5485465
  51.2564999  25.8259181  35.5181931  49.1550204  25.4769316  34.8224800
  48.3624023  24.8604138  34.8273084  49.0976876  26.5332595  33.7894223
  50.0735297  27.1352474  33.7244962  49.0889337  25.8853902  32.4008855
  48.2475152  25.1951884  32.4619129  48.6204389  26.6629940  31.1741236
  47.5755044  27.0277181  31.3270495  49.3286909  27.4027022  31.0511374
  48.5773015  26.0051292  30.3295548  50.3534670  25.0877411  32.1506649
  51.1507074  25.7335524  32.3404010  50.4399628  24.2220723  32.8045714
  50.3906213  24.7022512  31.1427861  47.9822813  27.5171077  34.1092829
  46.8527671  27.2248898  33.8189917  48.2399851  28.6434897  34.7435865
  49.2431611  28.9220243  34.8877762  47.2598065  29.4892711  35.4651105
  46.3127572  29.0399266  35.4097315  47.4792185  29.2779782  36.9703926
  47.2034369  28.2861259  37.2433160  48.8923283  29.5028883  37.4658839
  48.9888661  29.3750616  38.5381185  49.5717179  28.7795784  36.9936824
  49.1690902  30.4884812  37.2186900  46.6055988  30.1513826  37.7590585
  46.7312547  31.0268218  37.3558954  47.1791806  30.9384911  35.1005025
  48.1309321  31.7254326  35.1653619  45.9302426  31.4458221  34.8715427
  45.1342407  30.8630215  34.9911267  45.4244924  32.8410387  34.8913707
  46.0286090  33.4522400  34.2124218  43.9907533  32.8971550  34.4615505
  43.7934915  33.9576823  34.3388800  43.7227558  32.2649979  33.0393413
  44.5064312  31.5647091  32.7117137  42.7322793  31.8942212  33.0538550
  43.8547617  33.0656554  32.3009447  43.1161223  32.4437774  35.4550338
  42.1849901  32.4484860  35.1616349  45.7824223  33.4557581  36.2487813
  46.3093183  32.7796505  37.1767180  45.6349518  34.7468234  36.4029456
  45.2946499  35.2431776  35.5726879  45.7701808  35.4519310  37.6777776
  46.7103837  35.2543534  38.1473316  45.7456597  37.0050972  37.5368998
  44.7973443  37.3489693  37.2351828  45.9054019  37.3432257  38.5305951
  46.8207042  37.6018919  36.6603329  47.1648676  36.9753923  35.6182686
  47.3857444  38.6448165  36.9918669  44.7680563  35.0856520  38.8139082
  44.7901971  35.5697450  39.9635882  43.8866781  34.0829605  38.4963461
  43.8892648  33.7063452  37.5762365  42.9945255  33.3602707  39.3896322
  42.2056006  33.9990548  39.8072939  42.1961810  32.2749672  38.6988703
  41.7018069  32.7795895  37.7925889  43.0297732  31.1332307  38.1171960
  43.3664282  30.4285962  38.8955808  42.6172259  30.5645159  37.3294058
  43.9057766  31.5473170  37.6821342  41.1352029  31.7553530  39.7139925
  41.6604865  31.1191302  40.4771605  40.6683055  32.5252467  40.2726573
  40.0918424  30.8947385  39.0868149  39.1942417  31.4724374  38.8283933
  40.5159492  30.3284289  38.2576457  39.8029755  30.0594087  39.7811396
  43.8215827  32.6989274  40.5375995  43.4051156  32.8218919  41.6968505
  44.9962601  32.1762328  40.2263859  45.3807436  32.2524591  39.3076287
  45.8802976  31.5789819  41.2807821  45.2896978  31.4061560  42.1577844
  46.4342655  30.1437785  40.9267418  47.4594325  30.1697504  40.4453632
  46.5963771  29.5989227  41.8880973  45.5162911  29.3908706  40.1782189
  45.6969129  29.6707661  39.2250869  47.0142665  32.4524744  41.7737805
  47.9772577  31.9715616  42.4102257  46.9987690  33.7208265  41.3448720
  46.1700796  34.1559384  40.9388913  48.1337179  34.7167695  41.5969490
  49.0723121  34.2124321  41.2565034  47.8865348  36.0761520  40.8671991
  48.0127623  35.8323707  39.8119848  46.9069286  36.4877588  40.9548932
  48.9666954  37.1196169  41.2060261  49.0413271  37.4495887  42.2760957
  49.9374846  36.7135418  41.0548293  48.8738001  38.3286643  40.2654437
  49.3353508  38.3405787  39.0644231  48.1700881  39.2976340  40.6581256
  48.4368948  34.9462214  43.0936065  49.5858173  35.1316889  43.4853073
  47.3170961  35.0184897  43.8219522  46.4051495  34.9799087  43.2641091
  47.2055173  35.2997790  45.2382979  48.1708838  35.5083497  45.6284377
  46.4357014  36.5728648  45.4445533  45.4283770  36.3947133  45.1646557
  46.5155571  36.8542088  46.5081813  46.9453568  37.7947175  44.7199484
  47.8242455  38.1129392  45.1612502  47.1985447  37.6837061  43.6112523
  45.8798352  39.2645713  44.7170217  44.5021922  38.6697643  43.7397006
  44.8162914  38.1169297  42.8166772  43.8681377  38.1835641  44.5138018
  43.9083039  39.5364412  43.4121032  46.6167944  34.1672230  46.0210685
  45.6718335  33.5398818  45.5785619  47.1128577  33.9129016  47.2331853
  47.7396752  34.6256028  47.6106113  46.3921043  32.9988133  48.2211433
  46.5571697  33.3595102  49.2807756  45.3428078  33.2086630  48.1830331
  46.8045804  31.5140100  48.1343099  46.8674944  30.8582954  49.1737471
  47.2066254  31.0702634  46.9428194  47.1722325  31.7958235  46.2187167
  47.5139140  29.6260289  46.7367970  46.7559079  29.0002663  47.1564774
  47.4934312  29.4054406  45.2370416  47.4109108  28.3658487  45.0164273
  46.5844866  29.8729063  44.7921459  48.4238913  29.8081100  44.8163789
  48.8424512  29.0678575  47.3968479  49.8693840  29.7846684  47.5988234
  48.8063030  27.7648268  47.7688074  47.8977410  27.3190335  47.6730441
  49.7923717  27.0238070  48.5621226  50.7123796  27.6009017  48.5579256
  49.0593396  26.8727244  49.9387005  47.9769898  26.8267417  49.8650528
  49.4752890  26.0066475  50.3841142  49.4263761  27.9497563  50.8781944
  50.5368296  28.1527700  51.3084348  48.4642206  28.7006263  51.3774679
  48.6073382  29.3428979  52.1653183  47.5231321  28.5791980  51.0264057
  50.1511720  25.6850397  47.8854566  50.0958364  24.6330383  48.4961168
  50.6095831  25.7304583  46.6561257  50.6571660  26.6842988  46.2811368
  50.6327884  24.5931570  45.7142366  49.6308260  24.1950377  45.6989373
  51.1035635  25.2320539  44.3557390  51.9380711  25.9516573  44.5981318
  51.5251035  24.4209467  43.7371175  50.0751232  25.9928028  43.5060401
  48.9005871  25.2859710  43.1606224  48.8069939  24.2353264  43.4906969
  47.8434580  25.9264125  42.4508218  46.9759197  25.3746540  42.1577746
  48.1032523  27.1924353  41.9184934  47.3193354  27.6569450  41.3779027
  49.2351915  27.9303063  42.2909814  49.4641943  28.9652568  41.8861244
  50.1938169  27.2843379  43.1114461  51.1369269  27.7660209  43.4085433
  51.6672743  23.5268093  46.0835452  51.6102362  22.4405778  45.4617536
  52.5803123  23.7412509  47.0208247  52.5392146  24.6211874  47.5076755
  53.7138507  22.8515168  47.1695005  54.4379162  23.4080876  47.7912061
  53.2712011  21.6316567  47.9545491  52.6937735  20.9316441  47.4106720
  54.1919731  21.1531026  48.1806593  52.4745964  22.0177463  49.2334703
  53.1023908  22.6976536  49.8100596  51.5466279  22.4923648  48.9757835
  52.1223260  20.7578346  49.9910196  51.6060241  20.0869455  49.2328402
  53.0355019  20.2791644  50.4041330  51.0320809  20.9761431  51.0826742
  51.4408656  21.6706972  51.7441429  50.1393165  21.3438958  50.5061956
  50.6789328  19.7289848  51.8657818  50.3290070  18.9992659  51.2217001
  51.4716566  19.2707988  52.3171424  49.9023938  19.8587321  52.5852642
  54.5469210  22.6325949  45.8976006  54.9154679  21.5408435  45.5134907
  54.5991677  23.6917454  45.1694517  54.2248607  24.5101278  45.5887992
  55.4327108  23.9606648  43.9652641  55.2713704  23.1798916  43.2367500
  54.9917346  25.2400840  43.2492059  54.1537714  25.0695186  42.5706932
  54.8857575  26.0004078  43.9355291  55.8942711  25.5513139  42.6454262
  56.8685586  24.0219953  44.3352159  57.2588854  24.6686922  45.3049442
  57.7221802  23.3967530  43.5438908  57.3016171  22.8845020  42.7652175
  59.2069911  23.6969531  43.5255531  59.4009762  23.9364578  44.5905708
  60.2386828  22.5355936  43.2357314  59.9099899  21.9528990  42.2789733
  61.2428457  22.8647457  43.0194386  60.2880400  21.5263671  44.4082583
  61.1443418  20.8787479  44.1954815  60.3570440  22.1238436  45.2984128
  59.0243837  20.6239469  44.4506523  58.4623807  20.5439845  45.5602710
  58.5676457  20.1172954  43.4295951  59.5774205  24.9706246  42.6910014
  60.4640762  25.7530251  43.0345262  58.7908477  25.2625538  41.6591283
  57.8893207  24.7233364  41.6065051  59.0999627  26.2130991  40.6170631
  59.8567165  26.8898597  40.9975274  59.8573510  25.5719290  39.3817879
  60.5670767  24.9923154  39.8536935  59.1672145  24.8766121  38.7796071
  60.4222146  26.6286697  38.3712906  59.5692834  27.0420854  37.8547399
  61.1162985  27.2944894  38.8538315  61.3601181  25.8136826  37.4030837
  61.7012226  26.5882083  36.7682755  62.0971920  25.3280445  37.9986402
  60.6810293  24.9062186  36.5765404  59.8478841  24.5996985  36.9937574
  60.8808705  24.4922073  35.3710151  61.9119118  24.8462183  34.6120167
  62.6345655  25.4598960  35.0095377  62.2839485  24.2090485  33.9778866
  60.0150030  23.5580695  34.9760766  59.1553425  23.5030705  35.6053132
  60.0422373  23.1720887  34.0446834  57.9072868  27.1482480  40.3151171
  56.7583824  26.6711284  40.3314244  58.2204660  28.3671006  39.9565253
  59.2222872  28.6340449  40.0993404  57.3045928  29.3407024  39.2380329
  56.3888252  28.7744850  38.9179290  56.7997126  30.5216019  40.0638699
  57.6754450  30.9701473  40.5038701  55.9799174  31.5537795  39.2811547
  55.3248411  31.1171223  38.5762700  55.3950152  32.1936324  39.9720809
  56.7179519  32.1456488  38.7974704  55.8929611  30.0000519  41.1115934
  55.4772485  30.7215956  41.8932952  55.0406270  29.4102452  40.5842908
  56.4253928  29.2127089  41.6403347  58.0931929  29.7426497  37.9647555
  59.3203217  29.9654624  37.9822075  57.3784458  30.0225091  36.8757484
  56.3445418  29.7991465  36.8088782  57.7072429  30.7900117  35.6542568
  58.6840897  31.1846431  35.8288581  57.7665843  29.7871813  34.4945161
  56.8195875  29.3504624  34.3278512  58.1611878  30.5154765  33.2377067
  59.2452523  30.6339702  33.2117196  57.8881526  29.9525810  32.3130394
  57.6854077  31.5021141  33.1600209  58.6802354  28.6129731  34.7172007
  59.7076117  29.0749486  34.8146520  58.4091295  28.0700348  35.5932696
  58.7061780  27.5815656  33.5901379  59.0970960  26.7253007  34.0473478
  57.6706421  27.4204288  33.2703460  59.3310122  27.9111030  32.7808162
  56.7407078  31.9186246  35.5004891  55.5398492  31.6839208  35.2755185
  57.1844199  33.1416452  35.5234688  58.1590219  33.3241580  35.6882556
  56.4084991  34.3597428  35.4157254  55.3634651  34.1350125  35.2056172
  56.4931028  35.0961420  36.8101532  56.1318036  34.3938391  37.5672868
  57.5818761  35.3210637  37.0315091  55.6593933  36.3408482  36.8742681
  54.8840867  36.6118633  35.9154221  55.8163410  37.0208016  37.9423653
  56.8172540  35.1660950  34.1741462  57.8241086  35.9172998  34.3159998
  56.0927984  35.0214174  33.0385859  55.0544167  34.1022547  32.7127863
  54.1958518  34.1979851  33.2972414  55.4155846  33.1415826  32.7544613
  54.5327900  34.5692782  31.3338744  53.7099078  35.3480059  31.4292517
  54.1971366  33.7568212  30.7125688  55.8113201  35.1749410  30.7097071
  55.6255553  35.9244945  29.8853286  56.5919417  34.3922262  30.4307779
  56.4019470  35.8652727  31.9019502  57.4912202  35.9580015  31.7846140
  56.0211127  37.3730687  32.0720898  56.0983715  38.1838276  31.1076545
  55.6679558  37.9088881  33.2825370  55.5060605  37.3197838  34.0902420
  55.6622302  39.2913094  33.6808644  55.1009963  39.2515314  34.6002733
  57.0891836  39.8732235  34.1049035  57.8470540  39.5367867  33.4023366
  57.0004297  40.9893294  34.1351194  57.5138011  39.3110481  35.4418341
  56.7184718  39.4623428  36.1855208  57.7525775  38.2406811  35.2839006
  58.6759383  40.1512173  35.9399665  59.4284940  40.1229669  35.1312274
  58.2549712  41.1666493  35.9837429  59.2184326  39.7751225  37.2675640
  58.7301963  39.0790581  37.7513181  60.1003460  40.4920553  37.9594199
  60.9323976  41.3506464  37.5143192  61.0344612  41.3785500  36.5161726
  61.4170342  42.0922622  38.0558277  60.1626649  40.2292836  39.1919673
  59.5924134  39.5776837  39.7165019  60.8057305  40.8070727  39.6311113
  54.7392957  40.2641511  32.7662112  54.9146580  41.4791375  32.7799336
  53.7332738  39.7774828  32.0264620  53.6693370  38.7209274  32.0194698
  52.9331061  40.6745914  31.0724637  52.9492499  41.7079950  31.4876394
  53.5080743  40.6464428  29.6827241  53.5268989  39.6049867  29.2640966
  52.7513539  41.1961167  29.0609563  54.9398013  41.3152770  29.5592751
  54.9850866  42.1912938  30.1234710  55.6371045  40.5215384  29.9060347
  55.3610805  41.6711491  28.1560443  54.5742698  42.2827654  27.7256374
  56.2640395  42.2664817  28.2072712  55.6312562  40.4082032  27.3817432
  55.2808445  39.5219607  27.7992254  56.1509735  40.4336173  26.1555160
  56.5911285  41.4961876  25.5506095  56.8691815  42.3733765  26.0470022
  56.7540062  41.2829545  24.5806787  56.1094027  39.3270480  25.4530375
  55.5963670  38.5383477  25.7334241  56.5772028  39.2482665  24.5843289
  51.4715181  40.2289199  31.0580097  51.2134284  39.0107823  31.0079684
  50.5718854  41.1839569  30.9085769  50.8577788  42.1167603  30.8450896
  49.1578417  40.8895193  30.8901108  48.9783232  39.7794152  30.7273049
  48.4838846  41.3108971  32.2012509  47.4455027  41.0594880  32.1600604
  49.0746260  40.7904498  33.0041447  48.6738222  43.0958432  32.4865348
  47.7124804  43.6960867  31.7257535  48.4566127  41.5302242  29.6574774
  49.0570501  42.3396596  28.8931135  47.1810297  41.2625160  29.4431890
  46.7256800  40.4393160  29.9323072  46.2360645  42.2196907  28.7727694
  46.8110823  42.6768263  27.9578168  45.0214488  41.4786643  28.2078525
  44.4366759  41.0848809  29.0487821  44.4700011  42.1970203  27.5899648
  45.4438165  40.2530515  27.3459934  45.9629396  39.6037502  28.0912097
  44.5082540  39.5932137  27.1651827  46.5510633  40.4218686  25.9004101
  45.3801054  41.0650394  24.6402053  44.4225560  40.5266333  24.6129581
  45.2344954  42.1976385  24.8090874  45.7883588  41.0302631  23.6328762
  45.7762789  43.2874339  29.7170272  45.6214318  43.0326599  30.9303185
  45.6662952  44.4943075  29.1676279  45.6865412  44.6302344  28.1716719
  45.3755399  45.7072514  29.9136618  44.9777275  45.4409390  30.9454069
  46.7569451  46.3766941  30.0053284  47.2854922  45.8789096  30.7538401
  47.2952955  46.1270391  29.0542244  46.8545027  47.8718993  30.4523521
  46.5247631  48.5002070  29.6554902  46.3529656  47.9579175  31.3961033
  48.2926308  48.3119776  30.7635851  48.5837935  47.6928414  31.6456670
  48.8991008  48.1884363  29.8730466  48.2509334  49.7892653  31.1629632
  48.2252375  50.4082751  30.2437874  47.2903240  49.9342209  31.7756662
  49.4235237  50.1268208  31.9829446  50.2616697  50.1299463  31.4203233
  49.3735002  51.0839412  32.3215471  49.5096251  49.4314919  32.7506715
  44.3253796  46.6147537  29.1920578  44.5884279  47.0790661  28.1075352
  43.1574099  46.9234561  29.8445117  42.6030801  46.3545821  31.1223245
  43.4155301  46.5643817  31.8247796  42.3741597  45.2780658  31.0555772
  41.4438797  47.1910043  31.4690898  41.9455140  48.1076900  31.8916042
  40.8139698  46.7433094  32.1959929  40.7871918  47.5873456  30.1438458
  40.2592193  48.5113576  30.2111878  40.1422600  46.7452033  29.7646101
  42.0558405  47.7879837  29.2708018  41.8045015  47.4342766  28.3797239
  42.5430235  49.2705376  29.2429796  43.1783328  49.7465862  30.1981254
  42.4646928  49.9320422  28.1127782  41.8666896  49.5729253  27.3827778
  42.9244853  51.3592232  27.8979693  43.3570513  51.8774544  28.7593872
  44.0911131  51.4509788  26.8717421  43.7297356  51.1632179  25.9444035
  44.6437537  52.8815630  26.8412038  43.9086389  53.6603109  26.6303607
  45.1551065  53.0961891  27.8268097  45.4289374  53.0129101  26.1193385
  45.3325747  50.5996725  27.2176618  45.0696118  49.5554681  27.0910735
  46.1678270  50.8215806  26.5568677  45.6139217  50.9012492  28.1731129
  41.7307766  52.1424803  27.4708994  41.2163438  51.8306452  26.3729275
  41.2861639  53.1669722  28.1455178  41.6769266  53.2271956  29.0775094
  40.3014716  54.0958767  27.6409928  39.6018124  53.5971628  26.9645797
  39.4854561  54.7946212  28.8085339  40.2597648  55.1706661  29.4978593
  38.6573852  55.9829121  28.3618466  39.3847234  56.7438660  28.0950051
  38.1396042  55.7048798  27.4422177  38.0324454  56.3169505  29.1644999
  38.5878319  53.8792732  29.6153488  37.6573773  53.7347501  29.1360570
  38.9991728  52.9125989  29.6406000  38.4477890  54.2602461  31.0935894
  37.8894414  55.1995391  31.0797756  38.0084093  53.4875349  31.7627080
  39.4131716  54.4692696  31.5310187  40.9497082  55.1304465  26.6995117
  41.7818884  55.8960618  27.1671305  40.6023219  55.1947775  25.4479779
  39.8463659  54.6395100  25.1035701  41.1878842  56.0504634  24.4152036
  42.1339370  56.5615323  24.7314031  41.4168028  55.3369474  23.0361511
  40.4628612  54.8995377  22.6763397  41.7188015  56.0411184  22.2364061
  42.4761135  54.2218403  23.2082445  42.0905171  53.4235408  23.8784963
  42.7744192  53.6566839  21.8078498  43.3423367  54.4340614  21.2720034
  43.4203260  52.7914726  21.8238998  41.9011583  53.3602531  21.2615011
  43.8104143  54.7252588  23.7046902  44.6347577  53.9753508  23.4937558
  44.0056841  55.6569661  23.1940402  43.6772344  54.9563619  24.7436913
  40.2389997  57.1944991  24.1076272  38.9853909  56.9907620  24.3331639
  40.7897202  58.2337337  23.5241655  41.8144177  58.2289685  23.4749548
  40.0152262  59.4357019  23.1750494  39.0119920  59.1574764  23.1717322
  40.1494178  60.5299063  24.2446533  41.1858196  60.8269891  24.3301284
  39.2827345  61.7882496  24.1405653  39.3832596  62.4078092  25.0732514
  39.7342222  62.3839554  23.3623091  38.2704808  61.4424906  23.8857377
  39.7721639  59.8797491  25.4792016  40.4668233  59.2573390  25.6601379
  40.4035852  60.0568686  21.7222297  39.5045146  60.7639712  21.1749551
  41.5947164  59.8293584  21.2037604  42.2532977  59.2692931  21.7841829
  42.0539036  60.4501598  19.9769404  41.9794662  61.5345304  20.1328147
  43.5687391  60.0199382  19.7611599  43.6536704  58.9915439  19.8013090
  43.9595485  60.2291924  18.6626694  44.5948110  60.6407148  20.6919070
  44.2266608  61.4496064  21.5539423  45.8052409  60.3700637  20.5898596
  41.2443591  60.0368517  18.7379643  41.1609844  58.8775266  18.3500294
  40.5334282  61.0075521  18.1063703  40.6778068  61.9446979  18.4871252
  39.4396207  60.8383076  17.0938975  39.0122196  61.8450573  17.0472417
  39.8527541  60.5562259  16.1609379  38.2445157  59.9255277  17.4118054
  37.2687167  59.8933643  16.6450621  38.2541585  59.1959464  18.5481143
  39.1014745  59.2550844  19.0894402  37.0383733  58.3869458  19.0051342
  36.1466842  58.9393399  18.7866170  37.0386442  57.0786456  18.1340182
  37.0488146  57.3824693  17.0615044  38.0309422  56.5744085  18.3255035
  35.9863468  55.9377919  18.3088402  36.4107450  55.0930657  17.7635804
  35.8357048  55.6742942  19.3816571  34.5124572  56.1604198  17.8927032
  33.5420480  55.4332027  18.1621594  34.2049748  57.2383273  17.3038384
  37.0686121  58.0262713  20.4813857  38.1070797  57.5486262  20.9388912
  35.9404824  58.0357763  21.1715885  35.0603841  58.3392410  20.7731219
  35.8760139  57.5749360  22.5344951  36.7637345  57.7858556  23.0437932
  34.7863716  58.3075972  23.3067756  33.8343663  58.0991864  22.8297113
  34.7588298  57.7833743  24.2736067  34.9383592  59.8269412  23.5923327
  35.8409233  60.0053050  24.1737651  35.0519621  60.3856753  22.6533874
  33.7450529  60.4379674  24.3616253  33.9155992  61.5537416  24.8442819
  32.7269271  59.7238900  24.5313540  35.5537799  55.9991910  22.5714909
  34.4766996  55.5270751  22.1002685  36.4880015  55.1818798  23.0724292
  37.3278058  55.6292720  23.3819917  36.5171949  53.7041930  22.9732930
  35.5164457  53.2149297  23.2695411  36.9446329  53.2742555  21.4847779
  36.9389633  52.1537319  21.4772901  36.1152997  53.6211584  20.8990374
  38.2940765  53.7325049  21.1045988  38.4199262  54.7964555  21.0984882
  39.0701861  53.2828176  21.7403680  38.6074935  53.4086941  19.6611811
  38.5668116  52.3231414  19.4995490  37.8064370  53.9254312  19.0243965
  39.9649929  53.8155380  19.2229089  40.1981452  54.7857474  19.4129325
  40.9545767  53.1856728  18.5961567  40.9558386  51.9897547  18.0932543
  40.1521579  51.3872601  18.2317379  41.6831571  51.6805598  17.5031661
  42.0358907  53.8167108  18.4213465  42.0051880  54.8191185  18.3315164
  42.8017637  53.3292895  17.9247441  37.4924124  53.1289739  24.0153721
  38.4587504  53.8494024  24.2646533  37.3184672  51.8762972  24.3730654
  36.4720345  51.4285226  24.0901872  38.3697505  51.0732025  25.0374711
  39.1081337  51.7072040  25.5000874  37.7935714  50.1987910  26.1749177
  36.9543435  49.6705996  25.6754584  38.7552567  49.2213218  26.8332568
  39.6996330  49.7517675  27.1031704  38.3186903  48.7861183  27.7295473
  38.9539535  48.4458497  26.0719787  37.1514974  51.1368142  27.1571281
  36.5846983  50.6501656  27.9699433  37.9273856  51.7113919  27.7097647
  36.5176963  51.9336680  26.6703073  39.1198675  50.1975854  24.0507670
  38.5097285  49.4302272  23.3155777  40.4380921  50.2512078  24.0675702
  40.8169372  50.8354884  24.8211778  41.2877528  49.1576213  23.4444550
  40.6463824  48.6731427  22.7622752  42.4868011  49.5406461  22.5258852
  43.0303324  48.6471972  22.2567910  41.9300502  50.1766253  21.2486798
  41.1628083  49.5714492  20.8595272  41.5545210  51.1727523  21.4632796
  42.7705554  50.2798763  20.5183195  43.4961303  50.4229621  23.3469131
  43.1611428  51.4313852  23.6833244  43.6222230  49.9213803  24.2675911
  44.8513918  50.5695035  22.6378026  45.1863809  49.5176698  22.4342787
  44.7243375  51.0180470  21.6758535  45.5824563  51.1192567  23.2128869
  41.6040325  48.1848068  24.6118501  41.6831159  48.6422310  25.7633297
  41.9370754  46.9289439  24.3029784  41.8512489  46.6479930  23.3400557
  42.8870771  46.1539409  25.1383801  42.8926364  46.4933526  26.1382804
  42.5101119  44.6596697  24.9732923  42.1855483  44.4194525  23.9500668
  43.2641958  43.9493216  25.3402262  41.3678001  44.1781272  25.8820081
  40.4557705  44.6845866  25.5828039  41.0906354  42.7057259  25.8405836
  40.2842158  42.3987858  26.5328161  40.6928495  42.4073618  24.8544166
  41.9922018  42.1199474  26.0744449  41.6331262  44.4603786  27.4102493
  41.6548627  45.5366203  27.5737416  40.8357271  44.0731935  27.9742676
  42.5708291  44.0531656  27.7263953  44.2912945  46.2556980  24.5529761
  44.5110832  45.8915292  23.3853786  45.2049206  46.7601491  25.3650202
  45.0706991  47.0162568  26.3925929  46.6238513  46.6749885  25.0226191
  46.7612575  46.7634341  23.9144722  47.3869907  47.9145434  25.5373921
  46.9756154  48.7688228  24.9839877  47.3727026  47.9111657  26.6141387
  48.4265769  47.8277079  25.2577481  47.1710043  45.3208551  25.4403182
  46.8118413  44.8475834  26.5219507  48.1480823  44.7944102  24.6815737
  48.3130437  45.2698967  23.8329241  48.8746041  43.5564156  25.0236605
  49.3871399  43.7338879  26.0198488  48.1550728  42.7898932  25.1531201
  49.9458643  42.9967388  24.1003058  49.9120876  43.2732772  22.9472095
  50.9439332  42.1918056  24.6505169  51.7438560  41.2960851  23.8558721
  52.1700527  41.9752551  23.1230523  51.1820412  40.5035810  23.3355706
  52.8143807  40.6910145  24.8182343  53.7085345  41.3567252  24.9006204
  53.1728003  39.6784881  24.4826467  52.0164038  40.6300309  26.1069415
  52.6579195  40.4149398  27.0368085  51.4238895  39.7532152  26.0255691
  51.1759312  41.9137462  26.0894252  50.2769296  41.7238496  26.6880072
  52.0512300  43.0860670  26.7368394  53.0717436  43.4876777  26.2021393
  51.5222536  43.6903449  27.8158698  50.7446486  43.1645777  28.2178053
  52.0564198  44.7912410  28.6137760  52.8711956  45.2333622  27.9431597
  50.8964138  45.7841728  28.8401236  50.2033011  45.3352730  29.5740210
  51.3161723  46.6584509  29.3080167  50.0373711  46.2734005  27.6629822
  49.3837488  45.4731575  27.4708084  49.4150495  47.0762144  28.0925521
  50.8371110  46.8425284  26.1290502  51.2358029  48.4828397  26.8219268
  51.7973202  48.3078039  27.7522422  51.7200896  49.0720267  25.9978283
  50.3062404  48.9690026  27.0316410  52.5721423  44.4034810  30.0002347
  51.8939436  43.5253243  30.5822210  53.6059784  44.9532611  30.5706110
  54.4001674  46.0507599  30.0965819  54.0487149  46.9555292  30.5695228
  54.4396904  46.0607790  29.0363550  55.7210590  45.7080279  30.7094968
  56.3596022  46.6184495  30.8962484  56.2508532  45.0459828  30.0520052
  55.4039042  45.1241228  32.1216279  55.3532643  45.9915143  32.8374366
  56.1025217  44.4101042  32.4515534  54.0536414  44.4272878  31.8507179
  54.2469279  43.3691316  31.7497191  53.1272632  44.5990542  33.0795798
  52.5162407  45.6581532  33.2940773  53.1939993  43.5840973  33.9613375
  53.7302680  42.7231483  33.7366833  52.3654814  43.5053120  35.2234269
  51.4501871  43.8941388  34.9044266  52.2081913  42.0961257  35.7863459
  51.3998358  42.2198108  36.4696794  51.4941182  41.2008567  34.7690430
  51.1812716  40.2871801  35.2803706  50.5889899  41.7372233  34.4399687
  51.9946887  40.9552177  33.8464610  53.4699952  41.3397269  36.4061809
  53.8710085  41.9599523  37.2076461  53.1435142  40.4194336  36.9609227
  54.2035763  41.1318802  35.6148679  52.8096683  44.4139766  36.3849289
  53.9365015  44.8804982  36.3827805  51.9687774  44.6717854  37.3881570
  51.0561072  44.2582242  37.3076479  52.2637763  45.5596136  38.4998589
  52.6557255  46.5084857  38.1010972  50.9893998  45.7941211  39.3659000
  51.2918932  46.1468628  40.3395323  50.0318620  46.8191226  38.7676385
  50.5345733  47.7552722  38.6969823  49.7393516  46.7116309  37.7382834
  49.1578045  46.9694220  39.3882598  50.2749430  44.5840098  39.5922628
  49.4355367  44.8084020  40.0477873  53.3644309  44.9984312  39.4707646
  53.7487251  43.8162297  39.3838989  53.8010978  45.8905841  40.4581805
  53.5182397  46.8562191  40.4068477  54.6031651  45.4936432  41.5781507
  55.6035393  45.0048677  41.3029997  55.1202501  46.6743982  42.4609461
  54.2984718  47.3200227  42.7545825  55.4847286  46.3017722  43.4044050
  56.1807443  47.4371112  41.8399057  56.8133364  48.5092254  42.4589905
  57.7975072  48.9751657  41.7202471  58.2936152  49.8761262  41.9434697
  57.7956363  48.2365608  40.5567399  58.2362470  48.5726747  39.6721130
  56.8332395  47.2726380  40.6881469  56.6098537  46.5323073  39.9567171
  53.8758360  44.4870561  42.4266176  54.4997254  43.4328130  42.6541093
  52.6030731  44.6737857  42.7767046  52.1438490  45.5834835  42.6169341
  51.9139512  43.6602099  43.5323258  52.5039487  43.4018060  44.4079121
  50.5799076  44.1875252  44.0658276  50.0772510  43.3008528  44.5388973
  50.7683393  44.9027740  44.9083012  49.7124478  44.7170072  43.0600319
  50.1034352  45.6323561  42.8930028  51.8368327  42.2966308  42.7671827
  52.2516386  41.2551292  43.3520335  51.4495537  42.2798917  41.4917972
  51.0156965  43.1684955  41.1206498  51.3990611  41.0327547  40.6997051
  50.7489829  40.3140712  41.2591039  50.8592586  41.3200853  39.2703957
  51.5070762  42.0343929  38.7826964  51.0847841  40.4141716  38.7339319
  49.5336185  41.6536440  39.1198423  49.4312698  42.6280916  39.2508424
  52.7403969  40.2967499  40.7107803  52.8024384  39.0607859  40.8941686
  53.8256206  41.0259009  40.5191662  53.7287502  42.0279181  40.5411421
  55.2130007  40.4273236  40.5806001  55.3381421  39.6414580  39.8150352
  56.1838257  41.5042666  40.0923777  56.3037549  42.4123700  40.7590347
  57.1589790  40.9999277  39.8779323  55.8075747  41.9437529  39.1420532
  55.6887292  39.8842716  41.9601366  56.3468471  38.8305567  42.0364608
  55.2824915  40.5684599  43.0224907  54.8960276  41.4754335  42.9443300
  55.5297464  40.0289206  44.3376593  56.5488630  39.7454649  44.3881778
  55.2102632  41.1814809  45.3068097  55.0857915  40.7534947  46.2566207
  56.0387559  41.9062938  45.2607269  54.2766975  41.6962566  44.9909846
  54.7065169  38.8290892  44.7383661  55.1526953  37.8694341  45.3777786
  53.4406104  38.8169168  44.2529473  53.0313661  39.6709213  43.8473615
  52.4846051  37.7535491  44.6418741  52.6893239  37.4702619  45.7024758
  51.0454845  38.3079364  44.6249302  50.7388498  38.6273492  43.6254653
  50.3096475  37.5563214  44.9866280  50.6867617  39.5281361  45.5619914
  51.5586039  40.1787067  45.6565801  49.8004899  40.0814616  45.1378279
  50.3969978  39.0024927  46.9809087  50.6349204  37.8670364  47.4190240
  49.8446974  39.8874590  47.7610204  49.4803255  39.5099455  48.6456738
  49.6266550  40.8810177  47.4607705  52.7363006  36.4238712  43.9490665
  52.5341071  35.3510243  44.5029424  53.1981814  36.4183041  42.7059577
  53.0804970  37.2672696  42.2130376  53.5163266  35.3394061  41.8997465
  52.7581315  34.4976284  41.9727307  53.6674091  35.8387020  40.4468198
  54.3823507  36.6445963  40.3739161  54.1560542  34.9862254  39.9008745
  52.3622224  36.2050502  39.7233725  51.7156590  35.3856344  39.4361590
  51.8269161  36.8063929  40.4480310  52.8053862  36.8781020  38.4428177
  53.6020186  37.5533432  38.7647783  53.1964395  36.1092273  37.7494549
  51.6954650  37.6187772  37.8277791  50.9563781  37.9140455  38.4126885
  51.3971399  37.7171814  36.4698679  52.2084542  37.2460346  35.5759839
  53.2286916  37.1698170  35.8296192  51.8644477  37.1819611  34.6214953
  50.2034572  38.0225595  36.0798441  49.4025561  38.2390518  36.6676051
  49.9392202  37.8788188  35.0739681  54.8345413  34.7258948  42.2645056
  54.9279946  33.5207919  42.4352646  55.8178895  35.5792676  42.5565291
  55.6913309  36.5263139  42.3411520  57.0241176  35.1023475  43.3220946
  57.4524731  34.2972056  42.7039776  57.9552701  36.2787442  43.4699285
  58.1926377  36.7257897  42.5205855  57.4255107  37.0580975  44.0360516
  59.1750118  35.9237222  44.2147063  59.0175454  35.5050241  45.2302400
  59.7390352  35.2506303  43.5974550  59.9464288  37.2972761  44.1994384
  60.1135280  37.4576634  43.1227003  59.2721194  38.0516068  44.5797602
  61.2472233  37.2600651  44.9989495  62.1147793  37.0662468  44.4902458
  61.4047348  37.4829364  46.3069312  60.3796361  37.7095059  47.0886500
  59.3887057  37.6554058  46.8291796  60.5218055  37.9228639  48.0855552
  62.6156796  37.4060695  46.8199264  63.4021415  37.4211046  46.1197513
  62.7610254  37.3429812  47.8377808  56.5641533  34.5248028  44.6385291
  57.0200784  33.4389935  45.0249031  55.6063515  35.2178333  45.3075077
  55.3843927  36.1479516  45.0480207  55.2316132  34.8425206  46.7052464
  56.1485070  34.7883401  47.2791169  54.5650184  35.5499233  47.1313079
  54.4937031  33.5454407  46.8561257  54.2620409  33.0771191  47.9572814
  54.1546787  32.9250780  45.6096307  54.2086567  33.4435816  44.7456306
  53.5470105  31.5986790  45.4835838  52.7348046  31.4522877  46.2516639
  52.8878702  31.3499747  44.1101188  53.5995013  31.4121615  43.3526751
  52.6362014  30.3425881  44.1021759  51.6414207  32.0234593  43.7738437
  51.8835544  33.0802620  43.4453892  51.2535355  31.5869579  42.8830691
  50.4688043  32.0429782  44.8324081  49.5448918  32.1726353  44.2300707
  50.2225565  31.0614230  45.3847477  50.5656511  33.2452889  45.6384599
  50.8581539  34.0133760  45.0507902  50.4906084  33.5125470  46.9577047
  50.0729356  32.6847067  47.8149761  49.9811325  31.7227793  47.5763640
  50.0589548  33.0065790  48.8011336  50.7754553  34.6489461  47.3693711
  50.7504327  35.4204584  46.7821446  50.4439312  34.7579711  48.3658673
  54.5064448  30.4986681  45.8825231  54.0396391  29.4309263  46.3776297
  55.8215857  30.7391471  45.8045248  56.1945256  31.6490131  45.3925833
  56.8412120  29.6977680  46.3133238  56.2512370  28.9282017  46.7760938
  57.5937089  29.0452841  45.1807791  58.3011393  28.2713166  45.5963418
  56.6136225  28.1684736  44.4619588  55.8520916  28.7481847  43.9211853
  57.1426005  27.5285560  43.7929131  56.0581954  27.5297925  45.1116948
  58.3891857  30.0188657  44.2949652  59.0479312  29.3427265  43.7124347
  57.6611408  30.5246513  43.6889085  59.3390670  30.9779119  44.9253781
  59.8564688  30.4680217  45.7092418  60.0209142  31.4196404  44.2098046
  58.7978293  31.7897234  45.3789141  57.7618493  30.2544899  47.4012806
  57.6836364  31.4573629  47.7385736  58.5052349  29.3041647  48.0991671
  58.6409428  28.4720990  47.6214532  59.3312165  29.7451461  49.1826243
  60.0978715  29.0174287  49.5198398  59.8073466  30.6702720  49.0352800
  58.5341302  29.9465485  50.5170222  58.8696918  30.8185120  51.3374126
  57.4685773  29.0646501  50.6784299  57.4045292  28.2576772  49.9998176
  56.3916987  29.2822078  51.7103097  56.5528866  30.3213576  52.0055094
  54.9578559  29.0033075  51.1135087  54.9071891  27.9264230  50.8047886
  54.1379259  29.1167102  51.8918471  54.6697665  30.0131882  49.9531085
  54.8185642  31.0895601  50.2447211  55.4252740  29.7914100  49.1919234
  53.2201469  29.7501956  49.4133753  53.0664712  30.3372318  48.4547998
  53.0735806  28.7145239  49.2524590  52.2545392  30.2703999  50.4063585
  51.6522837  29.6674503  50.8896565  51.8444934  31.5265716  50.4805790
  50.8234301  31.8058831  51.2528650  50.2977319  31.1013074  51.7772517
  50.4990878  32.7529777  51.2136866  52.3025549  32.5393270  49.8561410
  53.0752986  32.5918664  49.1861690  51.6863450  33.3424665  50.0078258
  56.6903880  28.4416455  52.9374533  56.3663675  28.7650710  54.0848200
  57.3532397  27.3338894  52.6684630  57.7044807  27.1790981  51.7449738
  57.5387116  26.3574522  53.7574634  56.7180303  26.4956435  54.4770266
  57.4989401  24.9976672  53.0808020  56.4953728  24.8023376  52.5970109
  58.2180234  25.0109419  52.2753456  57.8048460  23.8383003  54.0228179
  57.8718884  23.9992620  55.2401995  58.0294950  22.6373124  53.4755208
  58.2500776  21.9307074  54.1007737  57.8833745  22.4395128  52.5071463
  58.8050552  26.6868486  54.5394813  59.8378250  26.7017441  53.8690153
  58.8685420  26.8400021  55.8714848  57.7208226  26.7393145  56.7875288
  57.1729395  25.8158318  56.6141535  57.1821608  27.7025264  56.6617495
  58.3467330  26.6279294  58.1333288  58.5317175  25.5793073  58.3372703
  57.7757025  27.0598887  58.9474258  59.7682169  27.3313582  57.9598335
  60.6297131  27.1546053  58.6257217  59.6040322  28.3899809  57.8622304
  60.1358681  27.1129971  56.5150676  60.6041436  28.0173361  56.1006973
  61.1330099  25.9167755  56.4360496  62.3359414  26.1464917  56.5921296
  60.7633402  24.6769856  56.2515904  59.7918347  24.4713901  56.2555871
  61.7389558  23.5928344  56.2144456  62.5047993  23.7723155  56.9691454
  60.8948545  22.2759702  56.5200187  59.9998313  22.1654650  55.9685381
  61.5000753  21.4399860  56.1113357  60.5165762  22.0926453  58.0623731
  61.4138208  22.1354303  58.6461709  59.8193099  22.7642101  58.4875085
  60.0082944  20.6744063  58.1976227  59.3871592  20.3277437  57.3837205
  60.8284172  19.9121814  58.3102444  59.1999011  20.4910938  59.5020702
  59.7487035  20.6103413  60.3934097  58.4591761  21.3008780  59.4520424
  58.5404201  19.1708984  59.5591078  57.6344167  19.2397552  60.0884708
  58.3806447  18.8432289  58.5936931  59.0863856  18.4410173  60.0988252
  62.3839638  23.4527769  54.8714286  63.2023638  22.5659465  54.7431130
  61.9691307  24.2437604  53.8596359  61.3896896  25.0596286  53.9939962
  62.3525909  24.0220182  52.5209744  63.1917215  23.3292527  52.5152883
  61.1164442  23.4039186  51.8114796  61.0299670  22.3248109  52.0699877
  60.2342870  23.9327822  51.9684956  61.3484631  23.4026180  50.2932062
  62.3571384  22.8179941  49.8744431  60.4818267  24.0355731  49.4939226
  60.7643910  24.1431263  48.4769524  59.6492676  24.5193288  49.8407424
  62.9460225  25.2555663  51.7463923  62.2093966  26.0694278  51.1537667
  64.3026124  25.2998871  51.7258817  64.8551821  24.5516001  52.1237380
  65.0641654  26.4579567  51.2538747  64.4287099  27.2973374  51.4320920
  66.3378275  26.6618864  52.1620530  67.0807887  25.9876775  51.7399498
  66.8392217  27.6028739  51.9705157  66.1146552  26.4881434  53.6820046
  66.7279495  27.3029995  54.1354432  65.0767680  26.6508007  54.0246018
  66.5202123  24.9938032  54.2376347  66.7747461  24.9548931  55.4422871
  66.4822082  24.0115690  53.4701956  65.3495384  26.5165407  49.8005916
  66.3583127  27.1876810  49.3814354  64.6969330  25.7655323  48.9160420
  63.7583688  25.5339135  49.1087736  65.2505186  25.4933595  47.5974637
  66.0669529  26.1281203  47.4193017  65.8549237  24.1300797  47.4684480
  65.0623192  23.4106591  47.3612167  66.4115623  24.0753117  46.5613966
  66.6823109  23.7061691  48.6349459  66.2760137  22.8359298  49.3711670
  67.8464629  24.3062144  48.9122396  68.2878373  24.0147947  49.7605789
  68.3189673  24.9596146  48.1967416  64.3157187  25.8625405  46.4398176
  64.5264036  25.3531822  45.3122388  63.2239368  26.7240965  46.6482923
  62.9871609  27.1149778  47.5425014  62.3261947  26.9415081  45.5842437
  62.2022008  25.9668594  45.0698661  60.9683435  27.3652795  46.0275705
  60.9947795  28.3262153  46.6108073  60.3769741  27.4605517  45.1336933
  60.3162899  26.3280322  46.9686818  60.7105736  25.0909126  46.9551475
  59.5285815  26.7481082  47.8196722  62.9147995  27.9539420  44.5624961
  63.8581244  28.6773051  44.8712318  62.2844869  28.1632385  43.3538750
  61.6485008  27.4010514  43.0099266  62.6488400  29.1283758  42.2747764
  63.2504949  29.9230158  42.7601716  63.5258306  28.4725579  41.2309829
  62.9530091  28.0279426  40.4508793  64.1156316  29.2595732  40.8995397
  64.4578528  27.3771807  41.7641443  64.9130696  27.6443130  42.7294721
  63.8273108  26.5050016  41.9984488  65.5443391  26.9013369  40.7010661
  65.4934304  27.1360745  39.4754070  66.5482971  26.1854161  41.2029156
  67.3465183  25.9979752  40.6409369  66.5911831  25.9737032  42.1860952
  61.5374803  29.9015407  41.5178541  60.3644949  29.4461452  41.3306338
  61.9166329  31.0236452  40.9147263  62.9180930  31.3417138  41.0363849
  61.0829048  32.0149792  40.2273241  60.1162070  31.5892381  39.8875219
  60.7356475  33.1204030  41.2172256  60.2428322  32.7114470  42.0663195
  61.6982939  33.4473948  41.7028001  59.9737721  34.2897694  40.6200074
  58.5290177  34.2831864  40.4318753  57.9145767  33.4291380  40.7633565
  57.9427594  35.4443809  39.9513920  56.8314560  35.6227331  39.8654363
  58.7555304  36.5285100  39.4838336  58.0939361  37.6266773  38.9588141
  57.2096720  37.3338523  38.5835178  60.1599285  36.5448983  39.6123125
  60.7200288  37.3724048  39.1986694  60.7678040  35.3730365  40.1486859
  61.8393270  35.3401565  40.2521122  61.7998351  32.5949441  38.9897857
  62.6925263  33.4372014  39.1292840  61.4826161  32.0721108  37.8238572
  60.8044447  31.2516466  37.7744820  62.1422470  32.4695341  36.6160379
  63.0697114  32.9376047  36.8791048  62.5477171  31.2495208  35.8218275
  61.6402239  30.6155198  35.6977228  63.0613474  31.5857888  34.3869180
  62.1758156  31.6338460  33.7777670  63.5185659  32.6161935  34.3547199
  63.7180943  30.7738017  33.8793230  63.5597905  30.4732290  36.6413678
  63.0225411  29.9557076  37.4422018  63.8017586  29.6959423  35.9283016
  64.9203564  31.1290468  37.1367292  64.7845432  31.8605730  37.8946004
  65.3710605  30.2528409  37.5850643  65.5603830  31.5076187  36.2938640
  61.2253234  33.5134400  35.9396369  60.0089129  33.2404623  35.7268238
  61.7476204  34.6439089  35.5612411  62.7703546  34.7615138  35.6152514
  60.9750427  35.7183178  34.9752011  60.0432461  35.2794647  34.6179417
  60.6750275  36.6794213  36.1016195  59.8765547  37.3732471  35.7684476
  60.1350339  36.0989670  36.9082760  61.8277861  37.4975837  36.6536823
  62.6244356  36.9126481  37.6727455  62.4918011  35.8791099  37.9040044
  63.7391254  37.6842330  38.1541310  64.3299382  37.3024348  38.9224369
  64.1477393  38.9035284  37.5977106  65.1551348  39.6706266  38.1438552
  65.3900953  40.3921951  37.4825689  63.3401174  39.4196542  36.5323362
  63.6184791  40.3662314  36.1125990  62.1840356  38.7720327  36.1195144
  61.6830816  39.1515086  35.2697495  61.6715830  36.3446458  33.7775533
  62.7816755  35.9534554  33.4541048  61.1060321  37.3490798  33.2160427
  60.0636649  37.3747780  33.3498052  61.5163587  38.0032013  31.9535566
  62.5359243  37.7313635  31.8747461  60.7320617  37.3721471  30.7229569
  61.0001516  36.2725396  30.7965885  59.6593220  37.4334969  30.8778004
  61.0346524  37.8580358  29.2387240  60.8477748  38.9085935  29.1554390
  62.0753856  37.7306372  29.0377028  60.1025380  37.0234381  27.9243571
  58.5633735  37.8749431  28.1447273  58.6622572  39.0278339  28.1663257
  57.8532834  37.5539667  27.3860724  58.2164186  37.5794929  29.1672811
  61.2081326  39.4978075  31.9821177  60.0942173  39.8290123  31.6428148
  62.1378759  40.3766298  32.3345531  63.0307871  40.0884970  32.7048214
  61.8931634  41.8509407  32.4558732  62.8315176  42.3179849  32.0576803
  60.9841676  42.1118509  31.8311469  61.5540726  42.4513595  33.8516846
  61.3334271  41.7226103  34.7664524  61.5782569  43.7818751  33.9276866
  61.7375140  44.3291725  33.0379574  61.2153217  44.4949690  35.1466131
  61.3147303  43.7916183  35.9721266  62.3036641  45.6273481  35.3088819
  62.4144456  46.2100915  34.4074641  61.9752643  46.2722734  36.1620853
  63.6597389  45.1252236  35.6749542  64.1172104  45.9525160  36.2483200
  63.5220799  44.3059024  36.3427661  64.7226381  44.5571477  34.6795825
  64.7454734  44.7183299  33.4571651  65.5299054  43.6757060  35.1740179
  59.7697595  44.9853866  35.1569321  59.2751370  45.5095043  34.1496576
  58.8696532  44.6245859  36.1398791  59.1965122  44.0028880  37.4497510
  60.1799625  44.4100780  37.7972944  59.0209051  42.9135158  37.3379618
  58.1580354  44.4579555  38.4336308  58.2837236  45.4548321  38.7467206
  57.9340810  43.7402086  39.2984780  56.9047987  44.4195452  37.4968258
  56.0251580  44.9376453  37.8271416  56.6131844  43.4408779  37.3919652
  57.4608046  45.0605477  36.1676573  56.9035897  44.6036967  35.3041376
  57.3054388  46.5550433  36.1558205  58.2830249  47.3646886  36.1491700
  56.0600297  47.0128661  36.0015324  55.2506175  46.3385642  36.1996711
  55.6914022  48.4033947  35.8495510  56.4998195  49.0667978  35.6481078
  54.6407502  48.5068700  34.7175763  55.0249089  47.9012779  33.8646583
  53.7032370  47.9953110  35.0731618  54.3889488  49.9569342  34.1791683
  54.2187894  50.6237357  34.9760344  55.5410738  50.5669625  33.3597964
  56.4774204  50.7007350  33.8825364  55.6662353  49.9173306  32.4864100
  55.2436125  51.4962302  32.9089669  53.1849036  49.9026738  33.2732443
  52.8863169  50.8804086  33.0128108  53.3109748  49.3916178  32.2971504
  52.4012432  49.4782773  33.9423214  55.1408437  48.9635076  37.2204309
  54.0714377  48.6015868  37.6536014  55.9002503  49.9167676  37.8188400
  56.6968830  50.3813297  37.2418996  55.6565038  50.3856777  39.1996000
  55.7289459  49.5565733  39.8979592  56.8371346  51.3521715  39.5333121
  57.7736132  50.7309297  39.6543343  56.8646601  52.0711811  38.7625036
  56.7042490  52.0091062  40.9391175  55.9734765  51.5058641  41.5825629
  57.7406539  51.9692336  41.2888356  56.4073592  53.5272743  40.7484411
  57.4268272  54.2439044  40.6487829  55.2691232  54.0912761  40.9055144
  54.2382683  51.0354669  39.4255676  53.8044625  51.0885155  40.5607494
  53.5809112  51.5071655  38.3493171  53.9565108  51.2914161  37.4164585
  52.4087200  52.3046769  38.3842759  51.8526270  52.2166098  39.3091539
  52.8751061  53.7737456  38.3084068  53.6837473  54.0807060  39.0195301
  53.2974597  53.8797390  37.2683063  51.7197005  54.7097469  38.4176888
  50.9749052  55.0214174  37.4947056  51.4306859  55.2252506  39.5935764
  50.6541498  55.8587186  39.6626760  51.9085898  54.8965783  40.4243010
  51.4229522  51.9113870  37.2417592  51.7932498  51.5268831  36.1191757
  50.1340067  52.0137715  37.5662580  49.9098261  52.1650507  38.5543974
  48.9498305  51.5777001  36.7935644  49.3925921  51.3895154  35.8139293
  48.3572800  50.2907159  37.3294239  47.6229403  49.8078274  36.6667890
  49.2167033  49.6216123  37.4037526  47.9138387  50.4647900  38.7673361
  48.3572664  51.4186195  39.4470593  47.0191319  49.7169130  39.1991329
  47.8923344  52.6620285  36.7048548  46.7702059  52.4273429  36.3816813
  48.2390913  53.9509440  36.9549758  49.1855580  54.2271031  37.0319272
  47.1894434  54.9870589  36.8946966  46.4497910  54.6190546  37.5853991
  47.8210458  56.3606815  37.3717188  48.7547400  56.5072051  36.8118514
  47.1428354  57.2343915  37.1904846  48.0493062  56.3828542  38.8626387
  47.1189726  56.2722035  39.4730769  48.6926128  55.5473270  38.9787561
  48.7321862  57.6958388  39.1101694  48.1112307  58.7322824  39.5260964
  49.9553497  57.7976875  38.8363820  46.5562911  55.1953215  35.4922294
  45.4964333  55.8227622  35.3208019  47.2464457  54.6932478  34.4674537
  47.9515888  54.0918232  34.7734589  46.9158517  54.7226154  33.0304876
  46.4399185  55.6688375  32.6995036  48.2882507  54.6076088  32.2827259
  48.2588393  54.8777176  31.2578640  48.9524488  55.2587429  32.8086016
  49.0694826  53.2617142  32.3274618  49.0266279  52.5398457  33.2988557
  49.6613962  52.8942955  31.3306806  45.9750008  53.6029077  32.5328188
  45.4501110  53.6889016  31.4366600  45.8522864  52.5860705  33.3880357
  46.4463548  52.5698929  34.1457958  44.9791028  51.4478145  33.1709119
  45.1308011  51.1079469  32.1654462  45.4470214  50.2256357  33.9112753
  46.5352839  50.0450427  33.9463448  45.3358862  50.4107136  34.9381922
  44.5265127  48.9175228  33.1747155  44.2284113  48.4930912  34.4149718
  43.5041959  51.6537120  33.5286532  43.2163694  52.0883623  34.6572829
  42.6440190  51.3368053  32.6065290  43.0019775  51.2392751  31.6455126
  41.2752324  51.7826027  32.6471982  41.3146537  52.8922308  32.7385757
  40.5322227  51.3358309  31.4541989  40.7044576  50.3268327  31.3845342
  39.4878629  51.5522851  31.4499473  40.9264652  51.6221660  30.5490579
  40.4885470  51.2940984  33.9026497  39.3628777  51.7171182  34.0255764
  41.0025698  50.4025363  34.7745508  41.8021332  49.9170336  34.4551445
  40.3771559  49.8304088  36.0259731  39.4075522  49.5395247  35.6298705
  41.1112790  48.5903519  36.4779970  40.7114552  48.2842550  37.4169197
  40.8036962  47.8070777  35.7374497  42.6563481  48.7181040  36.6617616
  43.6095681  48.0169185  35.9672794  44.7629026  48.2508059  36.5015734
  45.6924638  47.9076755  36.0904362  44.6688971  49.0089910  37.6233748
  45.3970577  49.3710506  38.2234787  43.2609908  49.2475888  37.7889955
  42.7259446  49.7665356  38.5671653  40.2215242  50.8811900  37.1644435
  39.3204756  50.8124489  37.9845525  40.9736210  52.0202023  37.0902486
  41.7867811  52.0789691  36.4579961  40.7293780  53.2107834  37.9779553
  40.5145455  52.8558795  38.9995943  41.9844396  53.9159840  38.0703729
  42.3450125  54.4333967  37.1155259  41.7814284  54.7353944  38.6999497
  43.0625841  53.1981219  38.7062347  44.1662484  52.6827427  38.1170310
  44.5544779  52.9144631  37.1333745  44.7681744  51.8311530  39.0285644
  45.5857070  51.3375006  38.7510687  44.1684603  51.8680337  40.2438936
  44.4178345  51.2686175  41.4986626  45.1681367  50.5057906  41.5357633
  43.7116901  51.6890661  42.6289817  43.9151693  51.1830107  43.6079336
  42.6918415  52.6606985  42.4927696  42.1569511  52.9516647  43.4620466
  42.4268835  53.3093207  41.2263157  41.7571674  54.1333107  41.1446794
  43.1794945  52.9098751  40.1208655  39.6603868  54.2441153  37.6049707
  38.9182885  54.7250730  38.4648969  39.4421203  54.4456327  36.3140100
  40.1248489  54.0672081  35.6824381  38.1905443  55.0231859  35.7334128
  38.0361714  55.8473095  36.3747024  38.3886021  55.5246848  34.2704949
  38.8541974  54.6893630  33.7596386  37.4228182  55.7712498  33.8378858
  39.2237536  56.8284209  34.3055029  40.0980876  56.6427627  34.9412410
  39.5563582  56.8341398  33.2456970  38.6149684  58.1823343  34.7078691
  37.9180043  58.5701718  33.9655947  38.0986012  58.0729770  35.6469517
  39.7872421  59.1608638  34.8367912  40.5227335  58.8559169  35.6717257
  40.3289154  59.0643771  33.9439991  39.4384145  60.5227022  34.9474346
  38.9323691  60.8588883  34.1135107  38.7962624  60.6372824  35.7579581
  40.2738531  61.1005862  34.8525203  36.9166230  54.1164759  35.9636215
  35.9118836  54.5503881  36.5223476  37.1019876  52.7399937  35.7600920
  38.0134658  52.4026229  35.3635427  36.0443376  51.8084035  36.0119039
  35.1726622  52.2914058  35.5303708  36.3451069  50.4064902  35.4351252
  37.2646654  49.9557781  35.6924810  35.6673910  49.7426732  35.9462737
  36.0718333  50.3798061  33.8910664  35.0439507  50.7253237  33.8580901
  36.6586618  51.0446292  33.2952675  36.0802351  49.0203880  33.1869230
  36.7267611  48.0735791  33.6652706  35.4039831  48.8681989  32.1720384
  35.7066077  51.6320871  37.5138399  34.5807095  51.2986760  37.7776148
  36.5637010  51.8595035  38.5266898  37.5527589  51.8683460  38.2582670
  36.2354621  51.7216284  39.9309660  35.7603107  50.7769868  40.1795864
  37.5628586  51.7582960  40.6635838  37.9713037  52.7334709  40.5862276
  37.3277368  51.5405404  41.6808150  38.2749511  51.0541454  40.2702405
  35.3022841  52.8431243  40.3169057  34.3442729  52.5883733  41.0398514
  35.5597348  54.0634517  39.8461555  36.4492703  54.1436897  39.2718345
  34.7550971  55.2190962  40.0177453  34.4700789  55.2898408  41.1378852
  35.5212913  56.4337544  39.4585174  36.1465326  56.2564675  38.6130340
  34.7823616  57.1231867  39.0916399  36.2473053  57.0247602  40.6709637
  35.4554267  57.4052519  41.3336760  36.9790600  56.4016291  41.2188421
  37.0533991  58.2571276  40.2493664  37.9040716  57.9412244  39.6501561
  36.5077960  58.8818672  39.5787685  37.3965877  59.1327531  41.3608802
  37.9182067  58.4532218  42.0827046  38.0215670  59.9239961  40.9761293
  36.1869578  59.6636553  42.0371682  36.4208240  60.4684307  42.5990347
  35.4463801  59.7611400  41.3382709  35.7619211  58.9799892  42.6218937
  33.3751847  55.0740930  39.3977382  32.3238040  55.3908341  39.9566865
  33.2248216  54.4602571  38.1805547  34.0492701  54.2100727  37.6975187
  31.9605867  54.1984039  37.4700274  31.4665310  55.1834832  37.3338341
  32.1800524  53.6167843  36.0730485  32.8796056  52.8330266  36.1482327
  31.2137158  53.2425004  35.6162583  32.8597471  54.7280124  35.2212841
  32.4265057  55.7041833  35.2912038  33.8978799  54.9428861  35.6461134
  33.0194218  54.2780836  33.4191933  33.7355338  55.8597660  32.8142792
  34.0536485  55.6607752  31.7838430  33.0203737  56.6523613  32.7877544
  34.6558232  56.1297135  33.4204475  31.0474792  53.2899845  38.2491180
  29.8416921  53.5648476  38.3536017  31.6114433  52.2912012  38.9181729
  32.6429750  52.0608233  38.8328808  31.0161819  51.6233161  40.0275831
  30.0648701  51.2153532  39.7214362  31.7816844  50.3472145  40.3793194
  32.8238135  50.6923028  40.6203336  31.3461744  49.9555021  41.2835296
  31.9352787  49.2944699  39.3046058  32.2796026  49.8443112  38.4305427
  33.0172281  48.2851967  39.6948897  32.6557287  47.6126191  40.4195012
  33.2798600  47.6115021  38.9105181  33.9226126  48.8017029  39.9415079
  30.6907265  48.4810357  39.0898705  29.8187808  49.1274559  38.8050113
  31.0323583  47.7696987  38.3934381  30.4209030  48.0041140  40.0656241
  30.6562453  52.4785935  41.2688292  29.5276507  52.5475272  41.7116747
  31.6938354  52.9332189  41.9557815  32.6207257  52.6937784  41.5637812
  31.6107047  53.6527268  43.1946535  31.1478533  52.9333770  43.8966100
  32.9815467  53.9603384  43.6992228  33.4918911  53.0303186  43.6747002
  33.4450041  54.6493513  43.0027751  33.0306030  54.5484653  45.1634521
  32.2539105  55.2682758  45.2928770  32.9784447  53.4635880  46.2286894
  33.0536009  53.8452859  47.2096799  32.0393221  52.9200478  46.0960665
  33.8021330  52.7549971  46.0721754  34.3153627  55.3598870  45.2581590
  34.4194098  56.0005434  44.3889798  34.3395677  56.0436015  46.1370931
  35.1812811  54.7257103  45.3441056  30.6180706  54.8496296  43.2270851
  30.1139768  55.0996938  44.2567876  30.4542778  55.6442116  42.1398819
  31.0377592  55.3404724  41.3506805  29.5977718  56.7914707  41.9897852
  29.6039354  57.4907778  42.7851751  29.9275651  57.5938498  40.7039349
  29.8191672  56.9854431  39.7926735  29.2171482  58.3829526  40.4812943
  31.1702358  58.4773682  40.9206604  31.9470183  58.4408143  41.9031621
  31.2715916  59.3367763  40.0544946  28.1285691  56.2838509  42.0330277
  27.2260620  57.0080835  42.3764332  27.7669535  54.9868246  41.7147430
  28.5671989  54.4501297  41.3815323  26.4550168  54.4291604  41.6317043
  25.6213526  55.1517187  41.5608029  26.3829702  53.7337485  40.3085180
  27.2745289  53.0965198  40.1837163  25.6263008  52.9948071  40.1644574
  26.2577283  54.7315343  39.1555489  25.2632553  55.4657352  39.0559173
  27.2415406  54.9343341  38.3224525  27.1530584  55.6108268  37.6157611
  28.0405714  54.3613498  38.3802926  26.1485444  53.6042779  42.8957122
  24.9984757  53.1998953  43.0201888  27.1423862  53.3469864  43.8226628
  28.0689767  53.4738424  43.4995635  26.9350045  53.0404897  45.2384915
  26.1184297  52.3742559  45.3335460  28.2195274  52.2524807  45.7302510
  29.1730804  52.7830963  45.4570133  28.1883965  52.0388473  47.2409686
  27.2604834  51.5692966  47.5102413  29.0331481  51.6426758  47.6229107
  28.2260867  53.0543784  47.7985144  28.1822147  50.8826469  44.9184506
  27.5542904  50.1489093  45.4705856  27.7503161  50.9974229  43.9193314
  29.6432983  50.3782167  44.8200213  29.8572912  49.4171721  44.3036038
  30.1606956  51.1705875  44.3173220  29.9531222  50.2228302  45.8147657
  26.6834572  54.3470313  45.9659178  27.1717630  55.3847604  45.5809545
  25.8315169  54.2555074  47.0249208  25.2874684  53.3726520  47.2566980
  25.8220472  55.2852823  48.0982868  26.7758565  55.8131988  48.0983496
  24.6790927  56.2985927  47.9985013  24.4656601  56.8370883  48.9723531
  24.8621114  57.0785349  47.2434905  23.3645242  55.6184918  47.7104424
  22.9291390  55.5014060  46.6016807  22.6648378  55.0764642  48.7031709
  21.9841221  54.3598567  48.4878823  22.9166029  55.1782225  49.6706349
  25.7097021  54.4583083  49.3789246  25.2337007  53.2922247  49.3278277
  25.9970357  55.0571175  50.5483797  26.0277956  56.1167681  50.5799566
  25.7449674  54.5321574  51.8839177  26.0364882  53.4768318  51.9221750
  26.4595881  55.2993265  52.9284774  26.4555892  54.6536802  53.7723422
  27.9127963  55.7446330  52.8301975  28.5286686  54.8850349  52.7167565
  28.0506146  56.3539079  51.9231930  28.2152672  56.3375173  53.6673880
  25.7029566  56.4610627  53.2727516  25.7138804  56.6000168  54.2602751
  24.2102938  54.5200456  52.1895435  23.5075968  55.3074792  51.4701554
  23.7711153  53.7865236  53.1964425  24.5107381  52.8477873  53.9882388
  25.2238682  53.3604368  54.6715841  25.1490223  52.1618830  53.3805316
  23.4347476  52.0238207  54.7094237  23.7991069  51.5438054  55.5733711
  22.9990054  51.3196221  54.0208684  22.3676014  53.0846967  55.0340780
  22.7006293  53.7215854  55.8705498  21.3881731  52.6611520  55.2646488
  22.3790851  53.8571588  53.6629780  21.7630222  53.4488321  52.9400720
  21.7859107  55.3015956  53.8753800  20.5922408  55.4599155  53.6248575
  22.5496376  56.2559708  54.3478027  23.5844556  56.0596550  54.5848786
  22.0373809  57.6168429  54.5740155  21.1144358  57.6171212  55.1458684
  23.0499320  58.3175167  55.4315431  23.9624789  58.3584173  54.8827609
  22.7049733  59.3738444  55.5234869  23.3585867  57.6435542  56.8336920
  23.7872425  58.3548119  57.5008447  22.4584776  57.3031521  57.3563119
  24.3129620  56.3512823  56.8555010  25.1161959  56.1310884  55.9550922
  24.1834671  55.4959286  57.7232361  21.8733926  58.4206314  53.2502443
  21.4581205  59.6056521  53.2588608  22.2140849  57.7940441  52.1215358
  22.3674194  56.8051198  52.1937935  22.3180416  58.3346946  50.7472206
  22.1934068  57.5015469  50.0405226  21.4100424  58.9129996  50.5883172
  23.5058138  59.2207783  50.3957067  23.3652960  60.1074100  49.6103926
  24.7208234  58.9936402  50.9484864  24.7708283  58.2414997  51.5877604
  25.9636427  59.7506293  50.5916175  25.5925867  60.7072555  50.2919678
  26.7694653  59.8612222  51.9135755  26.6764635  58.8433493  52.4210738
  28.2879358  59.9331566  51.6828394  28.6089992  60.7969695  51.0530558
  28.9046051  59.8204244  52.5198775  28.5792344  58.9955952  51.1847194
  26.1514387  60.8779056  52.8419906  25.9966146  61.8367728  52.3447927
  25.2011723  60.5005230  53.2985446  26.9269472  61.1471347  54.1419096
  27.9254668  61.5129174  53.9676330  26.3155599  61.9160843  54.5798766
  27.0649822  60.2246784  54.7356489  26.6892393  58.9746658  49.5031977
  26.9445614  57.7724976  49.6343495  27.1459410  59.6237984  48.4447713
  26.9037419  60.5876528  48.3039652  27.9874864  59.0939871  47.4487269
  27.5752473  58.1191480  47.3189791  27.8072093  59.7075372  46.0324984
  28.1170627  60.7138271  46.0766982  28.7825600  59.0023458  45.0627239
  28.5484046  57.9339410  45.0516304  28.6968004  59.4293097  44.0836649
  29.7747213  59.1955028  45.3741925  26.3461926  59.4933153  45.4967357
  26.2049639  58.4983757  45.1325086  25.6143862  59.6999842  46.3050610
  26.0879831  60.4741165  44.3313708  26.2217995  61.5226404  44.7052530
  26.8618346  60.3695300  43.6212696  25.1717934  60.2645855  43.7863106
  29.4240923  58.9281545  47.9801664  29.9547998  59.8666990  48.5780259
  30.1448854  57.7997501  47.7743629  29.6999525  56.5846107  47.2437798
  29.6803366  56.5742785  46.1746060  28.6007675  56.4100386  47.4528717
  30.4605553  55.3721235  47.8845527  30.8520551  54.7424260  47.1304797
  29.8103773  54.8287591  48.5835791  31.5599525  56.0267343  48.6873087
  32.5300344  55.7872130  48.2548247  31.5103459  55.7453272  49.7350092
  31.3556089  57.5677251  48.4576662  31.1820247  58.0381852  49.3959266
  32.5821686  58.2830278  47.8004549  32.7116097  58.2651067  46.5705987
  33.6060069  58.7257104  48.6149161  33.6126456  58.5783742  49.6211262
  35.0182840  58.8828201  48.1697910  35.0257688  59.2455860  47.1429773
  35.6762600  59.8961456  49.0384000  36.6865009  60.2301303  48.6450364
  35.0248074  60.7255474  49.0500537  35.9500127  59.3914900  50.2796691
  35.1214266  59.2675966  50.8237820  35.8023906  57.4968127  48.2673616
  35.4290762  56.6101776  49.0934792  36.9324075  57.3465268  47.5272536
  37.2778111  58.0770684  46.9379573  37.7382741  56.0911703  47.4858599
  37.0696535  55.2668601  47.3683981  38.7255312  56.0640450  46.2638939
  39.2301652  57.0272282  46.2956332  39.5000488  55.3347817  46.4078251
  37.9906057  56.0125443  44.9262377  37.6397763  54.9894842  44.7378895
  37.1416472  56.7518245  45.0073798  38.9887862  56.5327254  43.5430791
  39.8438916  54.9415116  43.2789464  40.4080325  55.1440991  42.4305201
  40.4816057  54.7963786  44.1657080  39.1284940  54.1461134  43.1458438
  38.5293771  55.9330993  48.8200669  38.5600779  56.7611949  49.7047254
  39.0550963  54.7136418  49.0634228  38.9315075  53.9937730  48.4275097
  39.9428330  54.5450768  50.2005805  39.4585148  54.7192580  51.1363578
  40.2865419  53.0310678  50.1909800  39.4208930  52.5876283  50.6137929
  40.5303111  52.6890599  49.1846099  41.3770902  52.4730750  51.0509777
  41.3804832  52.6762830  52.4192168  40.7672995  53.4384201  52.8786147
  42.3102504  52.0639525  53.2824583  42.3359111  52.2955802  54.3750085
  43.2580367  51.1816460  52.7063857  43.9914626  50.7675377  53.3222267
  43.1430110  50.8516229  51.3562082  43.8973949  50.2806357  50.8865287
  42.2136252  51.5094866  50.5226605  42.2167662  51.2737690  49.4803579
  41.2451188  55.4459546  50.1431138  41.6982850  55.6929916  49.0477636
  41.8334759  55.9860495  51.2305982  41.5538593  55.6629154  52.1019299
  42.7609935  57.1943450  51.1524138  42.2739942  58.0095879  50.5680047
  43.1133517  57.8532406  52.5494447  42.1704635  58.0823608  53.0393869
  43.5141422  57.1032422  53.2187889  43.9726975  59.1280131  52.5476685
  44.9369096  59.0174786  52.0350802  43.3639188  59.8646422  52.1512743
  44.3329411  59.5347627  53.9041522  45.0079286  58.7660347  54.6434847
  44.0204381  60.7286475  54.3605223  44.0419537  56.8863471  50.3343997
  44.3719639  57.7264172  49.5121787  44.7715608  55.6910704  50.4690837
  44.7379308  54.7141659  51.5350428  43.9777342  53.9928012  51.4496928
  44.5832271  55.2364234  52.5247742  46.0786252  53.8859775  51.4659743
  46.0268945  52.8545987  51.6385792  46.8343934  54.3332288  52.0344367
  46.4140603  54.1119340  49.9687828  45.7830472  53.3869483  49.4686512
  47.4439783  54.0005018  49.6811199  45.8942550  55.4812175  49.5172132
  46.7023138  56.1937277  49.6499657  45.4402142  55.5163533  48.0622660
  46.2061551  55.9570644  47.1555785  44.3011194  54.9395649  47.7090117
  43.6359421  54.8362636  48.4648724  43.7614075  54.6924167  46.3459123
  44.6025378  54.3479286  45.7084063  42.6596369  53.6683459  46.4791848
  41.9596538  53.9437271  47.2510305  42.0765594  53.5602829  45.6104344
  43.3126880  52.3100785  46.8140122  44.2829369  52.2993912  46.1958188
  43.4894054  52.3537009  47.8744239  42.6066195  51.0147123  46.5093558
  43.2964988  50.1345385  46.0423205  41.4538362  50.8249230  46.9157072
  43.1006037  55.9885699  45.7441576  42.8497914  55.9787722  44.5398370
  42.9091254  57.0919556  46.5461171  43.3068954  57.0903684  47.4628842
  42.5629904  58.4359486  45.9840962  41.6560994  58.4660696  45.3386500
  42.1399045  59.3729371  47.1824896  42.9742335  59.3485949  47.9018580
  42.0689095  60.3885105  46.7835280  40.8616943  59.1061759  47.9081479
  40.1167394  59.2198324  47.1384735  40.8999039  58.0906422  48.2900192
  40.7138657  60.0415312  49.0686851  41.6432508  59.9972176  49.6848554
  40.5785836  61.0493011  48.6829879  39.6682748  59.5333139  49.9722120
  39.0219173  58.8433143  49.5726712  39.5081423  59.7434240  51.2700524
  40.3829731  60.4929999  51.9539611  41.1323346  60.8704114  51.3734440
  40.3446377  60.7285003  52.9224196  38.5122846  59.0910167  51.8132022
  37.9300102  58.5367882  51.2633630  38.6408189  58.9167333  52.7961566
  43.6771460  59.1835634  45.1259261  44.8027104  58.6954479  45.0700304
  43.2819592  60.1912501  44.3457336  42.3589125  60.5692969  44.5879696
  44.1886970  60.9583750  43.3993159  43.5067756  61.6004132  42.8797251
  45.2104325  61.8550470  44.1262808  45.9482053  61.1808713  44.6003668
  45.6191971  62.5005317  43.3897594  44.4979394  62.7961214  45.1106602
  45.1151267  63.6389786  45.1662543  43.5556921  63.1168215  44.6379236
  44.1898300  62.2459090  46.5222403  45.0220405  61.6772950  47.2771098
  43.0247698  62.4145309  46.9443674  44.8574852  60.0416542  42.3213940
  45.4090287  60.5715485  41.3884086  44.6929903  58.7096469  42.3140522
  43.8991713  58.3913928  42.8562320  45.1231703  57.8334781  41.1782707
  46.1680139  58.0780361  40.9931751  45.0443192  56.3625919  41.5453045
  44.0788918  56.1805944  41.9574803  45.2008365  55.7917568  40.6199239
  46.2168946  56.0603348  42.5000295  47.1108676  56.4232510  42.0675847
  46.1378815  56.4790974  43.5270221  46.4971413  54.5286434  42.7072070
  47.1500140  54.4048146  43.5306006  45.6226273  53.9925535  43.0055686
  47.1027630  53.8585571  41.4666460  46.4381998  53.9448581  40.6317132
  47.9642586  54.4465460  41.2618331  47.4720977  52.4263759  41.7935456
  46.7660072  51.8590761  42.2970163  47.8229465  51.9988347  40.9639908
  48.3004546  52.3524056  42.3948362  44.2952635  58.1536309  39.9392672
  44.8858001  58.1850707  38.8922007  43.0753000  58.6324641  40.1341008
  42.9082330  58.5980065  41.1755702  42.2784115  59.6046716  39.3138975
  42.7377861  59.5733208  38.3131476  40.8231743  59.0789032  39.2070047
  40.4352085  58.6574711  40.0938988  39.8839686  60.1106916  38.6114829
  39.6186347  60.8660398  39.3647908  40.2693593  60.6008471  37.6647752
  38.8912191  59.6826901  38.4373052  40.8279847  57.9209487  38.1875782
  41.3265919  58.2546961  37.3010123  41.4416559  57.1409458  38.6046739
  39.8441025  57.3967664  37.9540639  42.3211289  61.0302589  39.8300970
  42.1128713  61.1085749  40.9907514  42.5318164  62.1001228  39.0711605
  42.6739139  61.8449044  38.1723357  42.4731249  63.5038160  39.4186573
  42.6194477  63.6218219  40.4877004  43.4867808  64.3275145  38.5852284
  44.4282189  63.8918726  38.7184480  43.4184703  64.2926519  37.5264689
  43.5118068  65.7921626  39.0556687  44.1004264  66.5575293  38.2316411
  42.8999243  66.1417193  40.0981189  41.0476310  63.8396738  38.9128673
  40.7795194  63.9424950  37.7346509  40.1157237  64.1266207  39.8534131
  40.4619481  63.8636927  40.7337834  38.7514336  64.7498238  39.8588093
  38.2312533  64.7485393  40.8424121  38.9385453  66.2074873  39.5720306
  38.0960952  66.8695775  39.8018856  39.7258545  66.5959174  40.2041344
  39.3143640  66.2064963  38.5580365  37.7081943  64.1544114  38.9661963
  38.0624096  63.3350213  38.1067308  36.4364392  64.3670346  39.0643625
  36.0114892  63.9005917  38.3227292  35.5493478  64.7594803  40.2149896
  36.1714039  65.0425660  41.0775764  34.4965993  65.8118872  39.7522739
  33.8996168  65.3059891  38.9496641  33.4737072  66.2193785  40.8027137
  32.9644433  67.1709110  40.6498975  32.7465128  65.4826003  40.7788937
  33.9967099  66.3109716  41.7812953  35.1350331  67.1242449  39.1284766
  35.5166485  67.8572382  39.8623699  36.0125489  66.9811138  38.4112021
  34.1156425  67.7793223  38.2718247  34.6629098  68.4461106  37.6268041
  33.6549455  67.0232522  37.6443544  33.4605527  68.3789154  38.9661157
  34.7024402  63.5476405  40.6889542  34.1675370  62.7446433  39.8670081
  34.3832678  63.4274253  41.9407073  34.5472815  64.2488666  42.5130307
  33.5736334  62.3488052  42.5443052  33.9040500  61.4369371  42.1160867
  33.7600151  62.2958938  44.0877388  33.6300454  63.3557592  44.4660481
  32.9573134  61.7411538  44.5576654  35.1172821  61.7825489  44.6153918
  36.1061636  61.6478164  43.8981188  35.2272989  61.5876619  45.8603145
  32.0531521  62.5305665  42.2851491  31.4994592  63.6817244  42.0887772
  31.3026867  61.3840239  42.0394042  31.9260974  60.5950793  41.9180509
  29.8171244  61.2967598  41.7589046  29.5683449  60.2579222  41.7632937
  29.3583917  61.9072969  42.5635533  29.3467927  61.9389285  40.3762123
  28.1658149  62.0386159  40.0894329  30.3285208  62.2240515  39.5302767
  31.2773801  62.0890885  39.8821706  30.0532718  62.6900952  38.1730990
  29.3193051  63.4413305  38.1621617  31.3512428  63.1922860  37.5196669
  31.9287112  63.7127772  38.2211730  31.8742873  62.2736965  37.1368978
  31.1574389  64.1942588  36.3811185  30.1087706  64.2439370  36.0883087
  31.4478843  65.1830582  36.7716412  32.0364998  63.8256991  35.1711981
  31.5167814  63.9848913  34.0332984  33.1816361  63.4927570  35.4569890
  29.4548348  61.5939813  37.3176517  28.5225219  61.8620262  36.6079192
  29.8545227  60.2820024  37.4661713  30.5285007  60.0484872  38.2095679
  29.3722509  59.1134116  36.8017415  29.1847816  59.4346266  35.7888284
  30.5386492  58.1014910  36.8433073  30.6709097  57.8089781  37.8366235
  30.2923532  57.2336898  36.2537813  31.8852602  58.5116872  36.2775493
  32.1119855  58.9081039  34.9303335  31.2101345  58.7786414  34.2929988
  33.3420448  59.3351115  34.4834381  33.4623080  59.5908372  33.4408354
  34.4401984  59.3702284  35.3158822  35.6910946  59.6467125  34.8184019
  36.1743331  60.2855971  35.3722098  34.2660974  59.0298857  36.6549244
  35.0373790  59.0360253  37.4035036  32.9783369  58.6274893  37.1354576
  32.8866393  58.3773700  38.1834475  27.9988266  58.5320980  37.2365139
  27.6115076  57.4320485  36.8030101  27.3611905  59.1465844  38.2264954
  27.7526122  60.0286135  38.5464288  26.0537894  58.7748585  38.8475344
  26.2092849  57.7278522  39.1764564  25.7062542  59.6627506  40.1024803
  26.5716445  59.6546030  40.7546414  25.7146172  60.6460379  39.7322513
  24.4391634  59.4234617  40.9040164  24.0440141  60.3383607  41.3936514
  23.7235655  59.1462622  40.1040743  24.5853656  58.1728590  41.8025032
  24.8312086  57.3106932  41.2064043  25.3365594  58.3951962  42.5762322
  23.3343924  57.7399815  42.4794671  22.4767324  57.9421135  42.0999620
  23.3628513  56.9851189  43.5478422  24.4246478  56.6644440  44.1461665
  25.2985038  56.8000978  43.7359179  24.4493623  56.2436920  45.0752128
  22.2699018  56.5590357  44.0540529  21.3522447  56.6867638  43.5992936
  22.3437211  55.9425496  44.8935397  24.9015656  58.8142375  37.8414147
  24.6164335  59.8299292  37.2088169  24.2474304  57.7044197  37.6777481
  24.5311850  56.9527370  38.2596899  23.2893444  57.4197353  36.5659900
  23.7162932  57.7948156  35.6739543  23.1704055  55.8624273  36.4849322
  23.0907015  55.5659681  37.5412153  22.2594388  55.5916771  35.9282751
  24.4158077  55.2022922  35.8761646  25.3173397  55.5529003  36.3326401
  24.4751824  53.6963934  36.2702047  25.2343200  53.1681228  35.6328989
  24.7085765  53.5577486  37.3182028  23.4781674  53.2623588  36.1434967
  24.4259730  55.4461874  34.3746246  23.3691007  55.5105679  33.9408469
  24.9220606  56.4127142  34.1972034  25.0871582  54.6855812  33.9292932
  21.9327269  58.1595651  36.7703174  21.4021640  58.0759059  37.8859173
  21.3616929  58.8385113  35.7620074  21.6369984  58.6261308  34.7802197
  19.9853380  59.3650561  35.9688916  19.8766722  59.7359730  37.0395001
  19.8104119  60.5583873  35.0556754  20.6106946  61.2659472  35.2427696
  20.0423841  60.2388470  34.1001165  18.4834405  61.3871412  35.0661972
  18.5683644  62.1182601  34.2958206  17.6118196  60.7597399  34.9451605
  18.4398664  62.1313700  36.3910371  18.3706885  61.3921191  37.1919651
  19.3725757  62.6370212  36.4519356  17.2389447  62.9901322  36.4501378
  16.3041983  62.6171877  36.7195577  17.1842273  64.3150153  36.3209999
  18.1356353  64.9862443  35.7013163  19.0111098  64.5383774  35.4200139
  17.9667212  65.9868763  35.5761040  16.2006907  65.0118634  36.8957766
  15.5059034  64.5329910  37.4918551  16.1733395  66.0114865  36.8659355
  18.9070369  58.3395250  35.7428318  18.7046780  57.8397022  34.6426262
  18.0049686  58.2189079  36.6879622  18.1192799  58.8105287  37.4815850
  16.8540579  57.3232988  36.6694301  16.1575548  57.6071172  37.4869058
  16.3207577  57.4758880  35.7328254  17.0254661  55.8226663  36.8697385
  17.8242526  55.2910684  37.6575600  16.3089546  55.0235365  36.1120545
  15.6936879  55.4257854  35.3564112  16.1853549  53.4924268  36.2280022
  16.1176043  53.2547580  37.3130669  14.9241069  53.0022544  35.4824299
  14.9310966  53.2219119  34.4422571  14.7792308  51.9198755  35.5623465
  13.6413711  53.6629258  36.0784632  13.6188763  54.6872766  35.7307801
  12.7442311  53.1143964  35.7705967  13.6901462  53.7033817  37.6314380
  14.0466072  52.7288347  38.2459300  13.5820850  54.7865715  38.2340708
  17.4268635  52.8188204  35.8424537  17.7193432  51.6503149  36.1621343
  18.2686625  53.5740545  35.0966791  18.0804980  54.5388567  35.1455781
  19.5387583  53.1149380  34.5176756  19.3685554  52.2217205  33.8407513
  20.2111635  54.2959671  33.7868763  20.6747833  55.0072514  34.4998589
  21.0094880  53.9204655  33.1765746  19.5386796  54.8453739  33.1780139
  20.5076316  52.6433357  35.6604052  21.3229669  51.7807533  35.3818172
  20.4026817  53.1595535  36.9022393  19.6042123  53.7276960  37.0495255
  21.0722130  52.5503956  38.0565434  22.1483335  52.4783197  37.7801798
  20.8255322  53.4336167  39.3170764  20.8522303  54.4888279  38.9982269
  19.8181052  53.1396267  39.7695886  21.8533931  53.2093669  40.3903402
  21.8892208  52.2035211  40.7889550  22.7910250  53.5733332  39.9654099
  21.4946106  54.0586235  41.6062197  21.6360477  55.0846621  41.3353960
  20.4950268  53.9667606  41.8934003  22.3085982  53.6620695  42.7558629
  23.3033621  53.5587422  42.5498638  21.9517835  53.2046210  43.9839869
  20.7625896  53.2888130  44.5164512  20.0531185  53.8736379  43.9280968
  20.5280650  53.0288223  45.5005230  22.8839954  52.5279162  44.5508863
  23.7544065  52.4214492  44.0831979  22.7578349  52.2299836  45.5165953
  20.6221726  51.1193988  38.4110668  21.4399265  50.3530292  38.8451990
  19.3873320  50.6227760  38.1447895  18.7441949  51.2172007  37.7128575
  19.0338093  49.1462244  38.1811823  19.5278826  48.6594333  39.0624408
  17.5213384  48.8771644  38.3245125  17.0325243  49.1047336  37.4383702
  17.2256759  47.4444725  38.7864339  17.5106560  46.7738176  37.9560663
  17.7470940  47.2467983  39.7727136  16.1638097  47.3389698  39.0023157
  16.9961118  49.7314138  39.3805815  16.0004706  49.8089777  39.2395977
  19.5308943  48.3753606  36.9641463  20.0386872  47.2530634  37.0866110
  19.4815089  49.0838274  35.8297836  19.0470182  50.0218793  35.9310609
  19.8006098  48.4016191  34.5253597  19.3981715  47.4044737  34.4764491
  19.4051151  49.3012601  33.3624671  19.9189176  50.3450005  33.5051544
  19.7056813  48.7974254  31.9344794  19.2516992  49.4806704  31.2573232
  20.7442304  48.6256608  31.7522512  19.4170502  47.7340393  31.9505465
  18.0833947  49.5924773  33.4204903  17.9042566  50.2218585  32.6381743
  21.2686620  48.0803991  34.4565178  21.6155206  46.9805379  33.9720344
  22.1156736  48.8836191  35.1067520  21.7408737  49.8457587  35.2309365
  23.6270354  48.7824678  35.1000638  23.9954364  48.8874882  34.0836025
  24.1105246  50.0167789  35.8695237  23.7718189  50.9890789  35.4777621
  23.6259036  49.9606790  36.7759754  25.5946518  50.2159013  36.0017123
  26.4223043  50.3672203  34.9128266  25.9728499  50.3753867  33.9602436
  27.7868026  50.5781267  35.0705108  28.4248072  50.7656341  34.2624713
  28.3448810  50.5663566  36.3631414  29.3853979  50.6238380  36.4757777
  27.5067444  50.4850369  37.4742783  27.9560005  50.5597799  38.4811818
  26.1618815  50.1391960  37.2760866  25.4671432  50.0957156  38.0559948
  24.1859457  47.4165407  35.6638095  25.1445783  46.9081243  35.1044136
  23.4919392  46.8476533  36.5970542  22.6704986  47.3138691  36.9943352
  23.9726833  45.6153669  37.1991139  25.0627117  45.5676910  37.2655571
  23.3648364  45.3821440  38.6369544  22.2498050  45.3886133  38.4722444
  23.9199072  44.0635411  39.2337716  25.0024362  44.0454576  39.0604554
  23.7927260  44.1110922  40.3001892  23.3490942  43.2505759  38.8022662
  23.8535437  46.4968972  39.5559204  24.9516331  46.4522159  39.4376512
  23.5661203  47.4931433  39.2956697  23.7015685  46.2540402  40.6274656
  23.5455123  44.4256740  36.3310599  24.3295639  43.4739666  36.2582907
  22.4116049  44.4833827  35.6462654  21.8769375  45.2990682  35.6177854
  22.1298070  43.3356109  34.7010912  22.3093743  42.4472926  35.3041701
  20.6602277  43.2762803  34.2099973  20.3592262  44.1205150  33.6428761
  20.5997711  42.4451272  33.5081983  19.6840459  42.9836905  35.3181174
  18.9451961  41.9540299  35.1821836  19.6404165  43.6905336  36.3870764
  23.0311315  43.3562544  33.4861304  23.5604749  42.2696946  33.1185156
  23.2461287  44.5807778  32.9371167  22.6378646  45.3649068  33.1874394
  24.3047218  44.7922242  31.8555004  23.9762654  44.3139201  30.9383800
  24.4972646  46.3081667  31.5723228  24.7574607  46.7873787  32.4646778
  25.3445872  46.3633614  30.9719051  23.2924503  47.0364461  30.9001135
  22.4393563  46.6456784  31.3958819  23.4090416  48.5598708  31.2116857
  24.3664681  48.8744064  30.9371697  22.7577148  49.1672709  30.5840648
  23.2761078  48.7531102  32.2510967  23.2573960  46.7921685  29.4047508
  24.2868856  46.8396034  29.1754538  22.8574178  45.7795233  29.1547783
  22.6194205  47.4875780  28.8665046  25.5795336  44.1968662  32.3128313
  26.0973810  43.3156745  31.6375407  26.0535420  44.5154158  33.4792989
  25.6163368  45.1073636  34.1295588  27.2732282  43.8727934  33.9919515
  28.0559332  44.1539252  33.3084294  27.7361406  44.3826436  35.3556961
  26.9106647  44.3382306  36.1242666  28.4999617  43.6612150  35.6512626
  28.3342008  45.7442261  35.5477956  29.2510597  45.8685213  35.0455868
  27.6632180  46.4874952  35.1257672  28.5027564  46.1966395  37.2756767
  30.0407055  45.3171679  37.7636343  29.7793214  44.2744863  38.0354567
  30.8075867  45.4081679  37.0644276  30.3277076  45.6634019  38.7211182
  27.2363282  42.3148083  34.1198776  28.3213546  41.7156663  33.8731423
  26.1710409  41.6445149  34.6318146  25.4342981  42.2827673  34.7529826
  26.1241954  40.2739573  35.0450990  27.0892755  39.7925382  35.0888143
  25.6848206  40.1694575  36.5000799  24.6510236  40.5456080  36.5943403
  25.6054624  39.0803859  36.7235327  26.5043095  40.8693907  37.5477620
  26.2208747  41.8527494  37.8630155  26.3245006  40.3528826  38.4868358
  27.9960303  40.9206820  37.3522271  28.1148833  41.3579469  36.4072285
  28.4101637  41.6575109  38.1017619  28.5808124  39.5624872  37.3973342
  28.2919726  38.9530686  38.1711190  29.2816850  39.0215428  36.4774004
  29.8326451  37.9137314  36.6691563  29.7716841  37.5573839  37.6344182
  30.3487190  37.4472443  35.8914518  29.5651346  39.5191345  35.2590506
  29.3784857  40.4457860  35.0002399  30.2785640  39.1302661  34.6325507
  25.2822971  39.3172118  34.2909572  25.8291339  38.2879066  33.9225358
  24.0627599  39.6465061  33.9532289  23.7290344  40.5839632  34.2103931
  23.3812186  38.8113355  32.9689959  23.5543931  37.7550266  33.2528285
  21.8727656  39.1233717  32.8321827  21.7208914  40.2412739  32.7829446
  21.4100572  38.8137094  31.9133302  21.0618362  38.5576673  34.0038209
  21.3860721  37.5598660  34.2553848  21.3372933  39.2245946  34.8265612
  19.5531250  38.4901009  33.6216290  19.4406517  37.8196718  32.6897998
  19.0545841  37.9504593  34.3691210  18.8150717  39.7466234  33.4575132
  19.0129152  40.3381435  34.2599377  17.6117558  39.9427708  32.8876904
  17.1098128  39.1111900  32.0340863  17.7851939  38.5426321  31.5526417
  16.2023581  39.3539875  31.7029887  16.9556342  40.9960575  33.2255419
  17.4136131  41.7002580  33.9044462  15.9998495  41.1072454  32.9006490
  24.0210439  38.9520132  31.6410228  24.2774877  37.9498212  30.9582884
  24.3802531  40.1733513  31.3217121  24.1420527  40.9035603  32.0066797
  24.8652962  40.5301528  29.9345507  24.3458651  39.9335646  29.2396516
  24.6449976  41.5892730  29.7153290  26.3579409  40.3807691  29.7599165
  26.8039239  40.1596743  28.6750238  27.0468889  40.1330636  30.8930962
  26.4922693  40.2086222  31.7628151  28.5631304  39.9285448  30.9901935
  28.8062236  39.9140020  32.0582228  29.1018895  38.5924285  30.4806204
  28.9362723  38.5824646  29.3776701  30.1890590  38.5498642  30.6221160
  28.5299410  37.3973733  31.2858356  27.9652534  36.5264545  30.6267450
  28.9104472  37.1965956  32.4766579  29.3151452  41.0545290  30.2363790
  30.4349396  40.8417015  29.7597130  28.6778413  42.2186564  30.0562264
  27.7981258  42.3288120  30.5761842  29.3195249  43.4300406  29.5114406
  29.7552887  43.1242041  28.5598265  28.2414670  44.4751193  29.0875642
  27.7108599  44.8882767  29.9334037  28.7069799  45.3075902  28.6121208
  27.1382335  43.9846813  28.1100496  26.5014949  43.3445054  28.7145132
  26.2331087  45.0432647  27.6277208  26.7204372  45.7647383  27.0746864
  25.5107577  44.6913900  26.9371812  25.9018820  45.5947274  28.5419912
  27.6715391  43.2155108  26.8997365  28.4655914  43.7254967  26.3383444
  27.9737000  42.2448138  27.3028695  26.8084381  42.9774971  26.2912611
  30.3534708  44.1274198  30.3903034  29.9834305  44.3995278  31.5184158
  31.5866691  44.4141925  29.9694718  32.0907602  44.2144813  28.5908787
  31.4649118  44.4708473  27.7876562  32.5556923  43.2435230  28.4246682
  33.2824027  45.1480595  28.4861205  32.8039367  46.0865177  28.1658506
  34.0269333  44.9192149  27.7530943  33.7881310  45.1130449  29.9579840
  34.4335185  45.9611331  30.0624105  34.4998888  44.3463979  30.1779337
  32.5114803  45.0604235  30.8056271  32.7594687  44.5319901  31.7167653
  32.0556520  46.4570139  31.3472791  31.1304030  47.0467307  30.7895674
  32.6865786  46.9835797  32.4268126  33.5803436  46.6164082  32.7211622
  32.0368730  48.0430595  33.2380525  31.0168568  47.7545180  33.3554994
  32.7148149  48.3517467  34.6488541  33.7150272  48.3664573  34.4308888
  32.2791954  49.6240392  35.3433813  31.1350522  49.8489597  35.4251848
  32.7717976  49.6676979  36.3005393  32.7040719  50.4918330  34.7965925
  32.4676697  47.2742208  35.6501333  31.4596106  47.1061643  36.0069726
  32.7887359  46.3753018  35.2151406  33.0508970  47.3883644  36.5764601
  31.8452223  49.3753855  32.4545783  30.8104348  50.0088395  32.6598969
  32.7697904  49.7440893  31.6163914  33.5394336  49.1084002  31.5157919
  32.7158070  51.0002444  30.8932929  32.5762162  51.9197226  31.5096751
  33.9736313  51.1007756  30.0892514  34.8220891  50.9767295  30.7871141
  34.1073901  50.2129596  29.4304945  33.9602239  52.4050340  29.3331747
  34.1461115  53.5455464  29.9778023  34.4731087  53.5816487  30.9745560
  34.0994798  54.5592258  29.0880804  34.1140834  55.6064160  29.2973711
  33.9364297  54.1120730  27.7827982  33.8626062  54.7149292  26.4994484
  34.0590342  55.7753069  26.4701230  33.7433431  53.9120314  25.3648276
  33.6212608  54.3617456  24.3333871  33.6328347  52.5095338  25.5048898
  33.4107001  51.8890662  24.6174840  33.5476702  51.9511355  26.7822214
  33.4745806  50.9024822  26.9635195  33.7841869  52.7355384  27.9769766
  31.5943331  50.8865053  29.7860774  30.7386986  51.7382878  29.6918968
  31.5016184  49.8026580  29.0046111  32.2319817  49.0939524  29.1694302
  30.3829426  49.5678709  28.0666235  30.4272076  50.4235193  27.4504848
  30.7086643  48.3811432  27.1778884  31.5888547  48.5663102  26.5797432
  30.8144008  47.5297488  27.8102469  29.4942726  48.0224262  26.2522184
  28.6319365  47.8709062  26.8813636  29.2706900  48.9959118  25.1518294
  29.1023255  50.0017192  25.4863444  29.9563211  49.0394466  24.3291685
  28.2920081  48.7107613  24.7166847  29.7647708  46.6354482  25.5769283
  30.6932842  46.5606169  25.0721577  29.9511790  45.9122745  26.3894808
  28.8990902  46.4421885  24.9700491  29.0173976  49.5777043  28.7679804
  28.1113251  50.3293609  28.4044801  28.9476996  48.8208384  29.8799169
  29.8544024  48.3165813  30.1118235  27.8229843  48.8459036  30.7831221
  26.9569030  48.6076419  30.1895113  28.0656559  47.8267456  31.8948779
  28.1402254  46.8190507  31.4254785  28.9655830  48.0470638  32.4610511
  27.1308045  48.0224235  32.5415100  27.4572716  50.2783782  31.2501727
  26.2826152  50.6909447  31.2985549  28.4464622  51.1461608  31.6620486
  29.3565811  50.7953349  31.6849948  28.1531565  52.5168648  31.9683243
  27.3057953  52.5421883  32.7183737  29.4403346  53.0616873  32.6110089
  29.6100643  52.7316418  33.6408507  30.3265909  52.7605458  32.0221752
  29.5166791  54.5356618  32.6473556  28.8403062  55.1727982  33.6830840
  28.4514951  54.5624194  34.5050350  28.7627016  56.5732160  33.7857118
  28.1290161  57.0138851  34.5652079  29.3578501  57.3123950  32.7058230
  29.2821932  58.6725303  32.5722691  28.5261129  58.9915507  33.0880673
  30.1164770  56.6128097  31.7513570  30.6709496  57.1872710  31.0177872
  30.0923612  55.1852890  31.6084459  30.6918450  54.6866472  30.9146414
  27.6776103  53.2991086  30.7574495  26.7398942  54.0920957  30.9161962
  28.2906589  53.1781716  29.5516490  28.9634938  52.4622719  29.4973395
  28.0161114  54.0086662  28.4334988  28.0005188  55.0240613  28.7779293
  29.1179052  53.7514321  27.3287672  29.3090379  52.5965268  27.2722488
  28.7424833  54.0519896  26.3688873  30.4291779  54.5324472  27.6212081
  30.9153252  53.9944855  28.3924528  30.9805072  54.5085810  26.6607531
  30.4589342  56.0917794  27.9813530  29.7862156  56.3235233  28.8760541
  31.4454797  56.3359211  28.3638433  29.9752097  56.9102022  26.7987324
  28.9589387  56.9949253  26.5201293  30.7417241  57.5322124  25.9855975
  30.2908731  58.1000224  24.9385387  29.3076254  58.1928096  24.7059908
  31.0271448  58.5141565  24.3375197  32.0586422  57.6684286  26.0923275
  32.5259837  57.2368305  26.9021858  32.6011358  58.3344622  25.5522222
  26.5523483  53.8597769  27.9661586  25.8502321  54.8262695  27.7325417
  26.0238720  52.6292104  27.8696523  26.6671803  51.9431199  28.2182121
  24.6656388  52.2231889  27.4762484  24.2552431  52.7554056  26.5855724
  24.5804227  50.7272994  27.1852713  24.8587454  50.2987410  28.1901870
  23.2517245  50.0801253  26.7540197  22.8094479  50.4745408  25.7635405
  23.5253297  49.0361373  26.5789216  22.4971310  50.0665129  27.5294152
  25.6768154  50.3790581  26.0627179  26.0079475  49.3426055  26.2510407
  25.3592699  50.3939117  25.0669613  26.4879158  51.0015574  26.2967648
  23.6795875  52.5840775  28.6652673  22.6606304  53.2389959  28.3562879
  24.0801979  52.4377327  29.8857431  24.8165885  51.8041791  29.9955198
  23.2802537  52.9370585  31.0169043  22.3391840  52.5050319  30.9336963
  23.9927106  52.5460982  32.3228492  24.1695258  51.4688035  32.3245692
  24.9035757  53.0871402  32.3941855  23.3754857  52.8957234  33.2260771
  23.1041374  54.5178641  31.0490563  21.9936967  55.0840002  31.1543918
  24.1631798  55.2348640  30.6964314  25.0192767  54.7809556  30.4293919
  24.1958714  56.7067641  30.5891804  23.8340167  57.1627914  31.4963135
  25.5817076  57.3099735  30.3983417  26.0407524  56.8965459  29.5126277
  25.5327102  58.3558760  30.5183411  26.2979517  56.9636178  31.1605672
  23.3738206  57.2613881  29.3833203  23.0590575  58.4609132  29.3945578
  23.0410718  56.4937508  28.3432980  23.3777985  55.5510117  28.2822793
  22.0483320  56.8682875  27.3473891  22.2319922  57.9039426  27.0058652
  22.4630055  56.0241982  26.0770692  23.4470143  56.3801262  25.8836058
  22.4084085  54.9562237  26.1631317  21.7251548  56.5249171  24.8153163
  21.8848069  55.8583471  23.9255774  20.6434980  56.4903127  25.0081061
  22.1184946  57.9216007  24.4225277  21.2046760  58.7761808  24.2145812
  23.2957148  58.2626776  24.2577432  20.5771827  56.7694852  27.7530992
  19.7336127  57.2157770  26.9911053  20.1996392  55.9915083  28.7931152
  20.9153856  55.6011622  29.3898563  18.8959031  55.5552359  29.1425289
  18.8244601  55.4080640  30.2028919  18.2358323  56.3938043  28.8977530
  18.3330216  54.3362512  28.4703843  17.0933270  54.3524247  28.3679093
  19.2233688  53.4446210  27.9666269  20.2785001  53.5779878  28.1040864
  18.8395033  52.2568837  27.1718583  18.0864039  52.4979238  26.4034210
  20.0761805  51.7798292  26.2975752  20.9158838  51.9027886  26.9388298
  19.8336643  50.3739451  25.7191988  18.9757513  50.4089530  24.9928896
  20.6928814  50.0213107  25.1809135  19.6957376  49.6446459  26.5362393
  20.2880524  52.7984722  25.1824186  19.4380642  52.8325140  24.5425830
  20.2427032  53.7728010  25.7046732  21.6329360  52.7203321  24.4754115
  21.7185090  53.5878026  23.7871299  22.3359055  52.7910251  25.2779911
  21.7731571  51.7323065  24.0120842  18.4093950  51.2292862  28.2143182
  18.9706676  51.1893452  29.3378999  17.3875462  50.4582506  27.9177029
  17.1194697  50.5383037  26.9473760  17.0192890  49.2430419  28.7078593
  17.1396473  49.4157341  29.7377694  15.4998604  49.0341063  28.4952287
  15.2345904  49.4144387  27.5143734  15.2227900  47.9238481  28.5046326
  14.7073070  49.8053370  29.4943871  14.6947301  49.4859455  30.6770990
  14.0937796  50.9113907  29.0464691  13.3305858  51.2719066  29.5384594
  14.3451349  51.2284571  28.0967572  17.9090184  48.0573964  28.3555548
  18.3542845  47.9404803  27.2004051  18.0849910  47.0951655  29.2812610
  17.6472129  47.3035990  30.1283039  18.8346407  45.8992965  29.1344730
  19.8475345  46.1930681  28.8680596  18.8526486  45.0735300  30.4068673
  19.2515013  45.6172812  31.2811864  17.8384209  44.7889679  30.6772621
  19.6342901  43.7896551  30.3033129  20.9989632  43.7835294  30.5028600
  21.4676555  44.6562474  30.8692511  21.6665049  42.6277366  30.3476586
  22.8219474  42.5683622  30.5113745  20.9414239  41.4053076  29.9477956
  21.5702071  40.2182280  29.8208196  20.8462837  39.5529991  29.7968737
  19.5857337  41.4693967  29.7813912  19.0410915  40.5809942  29.6854864
  18.9324310  42.6675100  29.9107909  17.8706513  42.8314464  29.7405289
  18.3907393  45.0434261  27.9525639  19.2251815  44.4753483  27.2354798
  17.0968382  44.8418219  27.6756486  16.4351708  45.0397311  28.3657338
  16.6233349  43.8961718  26.6613150  17.1557162  42.8972977  26.8058776
  15.1519100  43.5398817  26.8578936  15.0207549  43.1956526  27.8684849
  14.6166084  44.5037798  26.7194907  14.8195980  42.8173295  26.1971253
  16.7926400  44.3806340  25.1844701  16.7602060  43.5611889  24.2828552
  16.9801081  45.6526780  25.0008581  16.9903013  46.2868367  25.7788736
  17.1192859  46.3648110  23.7614406  16.5210236  45.8400363  22.9948220
  16.7710808  47.8709259  23.9651473  15.7226533  47.7877390  24.3208454
  17.3683156  48.3715202  24.7352707  16.6653178  48.7410205  22.7247744
  16.7673849  48.2330215  21.6520966  16.5389755  49.9773770  22.7733607
  18.5740953  46.2757026  23.2705241  19.5521188  46.4374780  24.0074784
  18.7321965  46.0798652  21.9257323  17.8828136  45.9408149  21.4073109
  20.0566975  45.7017914  21.3188301  20.8618468  45.9007063  21.9747983
  20.1507514  44.2106767  21.0253340  19.5244967  43.9426227  20.1268276
  21.1481545  43.9237820  20.7132419  19.9611490  43.3248259  22.2701591
  18.9582715  43.6010443  22.6098782  19.9630596  42.3117565  21.9636916
  21.0627303  43.3692574  23.3280714  21.8700474  42.6660899  23.1470103
  21.4581488  44.3522950  23.2779565  20.4790191  43.1702142  24.6698835
  20.2782356  43.9296844  25.2282994  20.3036415  42.0446025  25.2773711
  20.2863851  40.9125860  24.6489280  20.7945484  40.9208430  23.7911050
  19.9937252  40.0665068  25.1218825  19.8591147  41.8577493  26.4663677
  19.7073827  42.7120373  27.0110317  19.7889747  40.9132532  26.8314088
  20.4161454  46.6051923  20.1108747  21.5085776  46.4480204  19.5151022
  19.5229675  47.5719784  19.7938010  18.5119865  47.5016907  20.1876064
  19.6116024  48.3653649  18.5480892  19.6566427  47.6754028  17.6868908
  18.3704782  49.2924677  18.4147440  18.1865473  49.8532958  19.4067755
  18.5113829  49.9233017  17.6000694  17.1723260  48.4996619  18.1088304
  17.3394697  47.9861876  17.1622608  16.9861326  47.7025189  18.8519792
  15.9222679  49.4207131  18.1173952  16.0202725  50.2401718  17.4407165
  15.0481749  48.7977151  17.8427053  15.6358930  49.8837652  19.5138158
  16.3202806  49.5849213  20.2404120  14.8306058  50.9046513  19.7799792
  14.8080921  51.3094181  21.0063064  15.3461542  50.8106520  21.7107511
  14.4436428  52.2144900  21.1851556  14.1466850  51.4651737  18.8693061
  14.2560811  51.2443479  17.8967325  13.4802513  52.1977748  19.0773910
  20.9399408  49.1447981  18.5642824  21.6414390  49.1657858  17.5484715
  21.3826677  49.7800295  19.6422369  20.7712546  49.8072041  20.4110948
  22.7292648  50.4360568  19.6765226  22.6834882  51.4143164  19.0637682
  22.9223613  50.9179759  21.1438719  23.8985159  51.4846514  21.1818227
  22.1462214  51.5862537  21.3681125  23.0428877  49.8219571  22.1786034
  22.0404101  49.4523515  22.9657188  21.0162448  49.9164036  22.9650415
  22.3926731  48.4531078  23.8607559  21.7868585  48.0607966  24.5660386
  23.7324590  48.1610369  23.7290309  24.4867714  47.1988387  24.3816950
  24.0387775  46.6528849  25.1923564  25.8530015  47.1002243  24.0734342
  26.4387519  46.2998138  24.5246646  26.4536314  47.9703330  23.0978913
  27.4867754  47.7566402  22.7915949  25.5997365  48.8410393  22.2975365
  26.0015345  49.2791875  21.3716125  24.2245479  48.9762693  22.6428982
  23.9034885  49.6348032  19.2484703  24.8806303  50.1862294  18.7767931
  23.7246084  48.2862245  19.2812377  22.8343533  47.8926679  19.4331622
  24.7970622  47.3645239  18.7224814  25.7980179  47.7062654  19.0705200
  24.5504580  45.8608552  19.1518152  23.6196800  45.6106596  18.6350987
  25.3750071  45.2916883  18.7797031  24.3708387  45.5701240  20.9650895
  24.0613062  46.7868926  21.3119845  24.9595892  47.4027393  17.2045816
  25.8950138  46.6980653  16.7267007  24.0165513  48.0175958  16.4072056
  23.4298236  48.6667625  16.9326121  23.9389724  48.0140169  14.9439614
  24.7426456  47.3382190  14.6040863  22.5730462  47.3188785  14.5782744
  21.7882059  47.9410411  15.0066715  22.4148549  47.2676731  13.4916948
  22.4986912  45.9828201  15.1668489  23.0548888  44.8770701  14.5073436
  23.6465582  44.8887060  13.6286124  22.7780852  43.5637847  14.9863020
  22.9787149  42.6797090  14.3933190  21.9798576  43.3340388  16.0810119
  21.7429117  42.3177311  16.3554270  21.3348805  44.4408469  16.6793941
  20.8349986  44.3596408  17.6719427  21.7358638  45.7055371  16.2857261
  21.5199930  46.5756940  16.9057700  23.9305927  49.4422285  14.3585922
  24.3974628  49.6174930  13.1890411  23.4403515  50.4990726  15.0766745
  22.9661712  50.3047160  15.9943701  23.3002660  51.8036654  14.5197081
  23.0591408  51.7249682  13.3996452  22.0108931  52.4664584  15.0716300
  22.0897885  52.8704764  16.0894076  21.9925526  53.3804770  14.5269339
  20.7221420  51.5794116  14.7955939  20.6404143  50.8714259  13.7279614
  19.8150556  51.6941263  15.6720328  24.5324083  52.7678070  14.5636910
  24.3697782  53.9241316  14.1754746  25.7249239  52.3590074  15.0236952
  25.7589534  51.4262926  15.4805703  27.0298835  53.1020526  15.0229647
  26.9353325  53.9399990  15.7156280  27.7084687  52.3524592  15.3985240
  27.6183437  53.5384273  13.6436970  27.2022779  53.1100402  12.5568874
  28.7422999  54.2076200  13.7551302  28.9474540  54.4907796  14.6913913
  29.5435795  54.7470408  12.6531228  28.8909907  55.2539622  11.9446460
  30.6854340  55.7614662  13.0623919  31.3673485  55.9372844  12.2456241
  29.9013759  57.0290959  13.2580690  30.6733251  57.8697655  13.2500594
  29.3178291  57.1682310  12.4051356  29.2758382  56.9855054  14.1405091
  31.4110136  55.3262592  14.2948822  31.9830269  54.4455594  13.9960595
  32.1827158  56.0904912  14.5240722  30.7550431  55.1568891  15.1283083
  30.1201676  53.6292839  11.8313454  30.4877130  52.6222817  12.4226461
  30.3324818  53.7378302  10.4850068  29.9468579  54.4826142   9.9889961
  30.9260238  52.8019530   9.4781431  30.1504455  52.0243528   9.2110603
  31.1664095  53.6094108   8.1870290  30.2594177  54.1448831   8.0142489
  32.0266374  54.3158668   8.3780269  31.4273378  52.6749091   7.0067028
  32.3940957  52.2082484   7.1685666  30.7374516  51.9068323   7.0697638
  31.4192865  53.4562344   5.7481414  30.4946396  53.9967974   5.5584585
  32.1862846  54.1757892   5.8135494  31.7228870  52.6147978   4.4713789
  31.0673123  51.6775448   4.4518003  31.3614174  53.2231941   3.6179486
  33.1044504  52.2752788   4.1658253  33.2961179  51.9074086   3.2513940
  33.6116765  53.1502654   4.2512208  33.4778356  51.6326244   4.9239371
  32.1291764  52.1199697  10.0989004  32.2693258  50.8542002  10.0369368
  33.1348120  52.8411278  10.6018469  32.9857716  53.8439999  10.6865420
  34.3682353  52.3476910  11.1852506  34.9732026  52.0199453  10.3293713
  35.0859615  53.6299627  11.6788681  34.5258763  53.9846950  12.5336083
  36.0424908  53.2043764  11.9516005  35.1029598  54.6896811  10.6097816
  34.1218035  55.3957612  10.3116986  36.2574588  54.9734892  10.0226313
  36.1918472  55.6045204   9.2469250  37.1566699  54.6708966  10.4419037
  34.0904072  51.3278444  12.3113987  34.9245933  50.4567839  12.4255080
  33.0271097  51.3870834  13.1127753  32.3024746  52.0808256  12.9171308
  32.6998117  50.5350782  14.2433988  33.7505872  50.3027342  14.5700560
  31.8542504  51.3146238  15.2687624  30.8691815  51.5177549  14.8409249
  31.5836240  50.7271414  16.0809931  32.4851546  52.5480021  15.8270001
  33.4950763  53.0964654  15.4225690  31.9341329  52.9445387  16.9831074
  32.3633605  53.7735226  17.4458875  31.0208077  52.5963935  17.2462625
  32.0866119  49.1853745  13.8131528  31.5214832  48.4394209  14.6494183
  32.2145345  48.8145085  12.5312362  32.5716564  49.4516794  11.7981546
  31.7330153  47.5230376  11.9838774  30.7702703  47.3653265  12.4038834
  31.6517149  47.5876542  10.4852643  30.9029550  48.3618998  10.2469829
  32.6243979  47.8431076  10.1174808  31.3930009  46.2397685   9.7879476
  31.6087334  46.3088496   8.7453379  32.1255262  45.5545265  10.1833496
  29.9534283  45.7692274  10.0728178  28.9634007  46.5447549  10.0863673
  29.6513007  44.5238094  10.1887336  28.6602822  44.2857629  10.2521486
  30.3774332  43.8677589  10.5380401  32.6095434  46.3818221  12.4563092
  33.7766369  46.3244222  12.1753974  31.9306053  45.4045441  13.0401836
  30.9617254  45.5166103  13.1217348  32.6364574  44.2285489  13.5708081
  33.5749146  44.4787322  13.9763918  31.8198085  43.4842466  14.6544743
  31.0063868  42.9247085  14.2708708  32.7022148  42.4904545  15.4123201
  32.6058689  42.5676279  16.4946753  32.4977907  41.5094552  15.1071802
  33.7415893  42.5743720  15.2352591  31.3378176  44.4473971  15.7194598
  30.7621485  45.2635369  15.2095516  30.6668661  43.9678970  16.4141077
  32.4307461  45.1697625  16.5382510  32.8136859  44.5253542  17.2805165
  33.2725595  45.3791357  15.9684333  31.9236074  46.0260753  17.0066605
  32.9098926  43.2059345  12.3917701  32.0906311  43.1011998  11.4774670
  33.9958332  42.5004094  12.4334944  34.6221831  42.6109815  13.2150514
  34.3598171  41.4505303  11.4854849  33.5477804  41.3368640  10.8077315
  35.7214336  41.7360622  10.7720433  36.4945130  41.5309089  11.5204499
  35.7266592  40.9403555   9.9498428  35.9642760  43.0874762  10.1135166
  35.8776207  43.8715346  10.8358463  37.3197238  43.2640032   9.4490064
  37.4132291  42.4177811   8.7027692  37.3652735  44.2867071   9.0252677
  38.1083437  43.1891601  10.2656811  34.8121056  43.4051867   9.1910053
  33.9895348  43.8556482   9.7379725  35.1290803  44.1575205   8.5434747
  34.4594303  42.6443910   8.5259956  34.5559652  40.0860226  12.2152979
  35.0930830  40.0456922  13.3891703  34.2685057  38.9322780  11.6061367
  33.9613744  39.0143902  10.6269383  34.5722676  37.5819285  12.0100219
  35.3163848  37.6269510  12.8068025  33.3279709  36.8683571  12.6933420
  33.0135678  37.2023278  13.6664476  32.4436509  36.9889176  11.9972504
  33.5374703  35.4034201  13.0313288  33.5288375  34.9649674  12.1265668
  34.4431952  35.1793701  13.5848976  32.3950547  34.8350827  13.9218667
  31.3407952  34.6224802  13.2827694  32.5368331  34.5398815  15.0960988
  35.1882960  36.6958054  10.8789071  34.5566241  36.5895376   9.8278127
  36.4450274  36.2656008  10.9614220  36.9435626  36.2744984  11.8440113
  37.1594137  35.8491170   9.7778217  38.2067622  35.8028984  10.0253897
  36.7502029  34.4292042   9.4228686  36.6539643  33.8711719  10.3286233
  35.7962177  34.3507740   8.7959843  37.7692278  33.6966877   8.5071258
  37.4743104  32.6786947   8.3965293  37.7319220  34.2307253   7.5514956
  39.2323424  33.8067740   8.9263733  40.0594338  33.7719452   8.0105151
  39.6820010  33.8778621  10.1102100  37.0671692  36.8045989   8.5371719
  36.7862664  36.5178597   7.3418089  37.3053925  38.0565247   8.8534305
  37.5404448  38.2355894   9.8425368  37.2561024  39.2341316   7.9717049
  37.3850445  40.0722686   8.6427782  38.4009418  39.1659353   6.9021608
  38.3328069  38.2444299   6.3219858  38.2360248  40.0104167   6.2072840
  39.8196708  39.3995253   7.3715993  40.1470557  40.5717568   7.6045357
  40.6021632  38.4172125   7.5255581  41.5557630  38.5784984   7.8200822
  40.5037259  37.5266073   7.1743203  35.9003907  39.5160655   7.2887598
  35.6715706  40.6078519   6.8573761  34.9919091  38.5942876   7.3594897
  35.2915350  37.7236921   7.6843186  33.5612346  38.6879650   7.0183851
  33.5375603  39.0560074   5.9937155  32.9383170  37.2690502   6.7792606
  32.9574852  36.6957960   7.7460521  31.4957067  37.3973224   6.2121785
  31.4863489  37.8578267   5.2719211  31.2041536  36.3840306   6.1454983
  30.7948828  37.8743603   6.8965179  33.6968314  36.3931991   5.7213627
  34.5965689  36.1087097   6.1177465  33.1252768  35.4092904   5.5547551
  33.7986545  36.9470133   4.7615431  32.7888469  39.5998859   7.9813975
  32.9671316  39.3904297   9.1712121  32.1592576  40.6333154   7.4469635
  32.1618337  40.6511613   6.4784069  31.3911561  41.6233266   8.2328154
  31.9528140  42.1629236   9.0092999  30.7930198  42.6205043   7.1838730
  30.5220659  42.0862820   6.3178647  29.9309160  43.1437447   7.5680357
  31.6982081  43.6633387   6.6857977  31.9918402  44.2736812   7.5250391
  32.6228246  43.2449876   6.3476538  31.1967676  44.5141479   5.5311354
  30.1444033  44.2130833   4.9544435  31.9687977  45.4002368   5.0682324
  30.3191223  40.8474905   9.0010510  29.6311429  40.0991203   8.3426582
  30.3337870  41.0011733  10.3188295  31.0871538  41.5388920  10.6678938
  29.5269832  40.2308196  11.1223792  29.6211356  39.1740886  10.9173338
  29.7700588  40.4601653  12.6042251  29.8288939  41.5346879  12.8038460
  28.6995289  39.8412961  13.4577872  28.4637652  38.8798811  13.0800972
  28.9397992  39.7419055  14.5061255  27.8098935  40.4447494  13.4739144
  31.0944878  39.7416107  12.9737793  31.3667533  39.7448421  14.0672732
  31.0426115  38.7326372  12.6949861  31.9294880  40.1147656  12.4855898
  28.1211771  40.7190446  10.7692529  27.7858630  41.8968101  10.9146485
  27.2963484  39.7412276  10.3896820  27.7290828  38.8342371  10.1378493
  25.9039292  39.9502866  10.1871125  25.6852437  40.9726166  10.4527552
  25.5154472  39.9496956   8.7366425  26.2300223  40.5856078   8.1959298
  25.7773624  38.9644198   8.2600165  24.1173918  40.1772043   8.3378062
  23.5163668  39.3980249   8.7886564  23.7188078  41.0669421   8.9025304
  23.9952375  40.2074269   6.7706088  24.6797681  39.5884553   5.9329790
  23.0909845  40.9963862   6.4095810  25.1038080  38.9223825  11.0304757
  25.4046022  37.7374475  11.0208651  24.0359872  39.3495093  11.6715258
  23.8449526  40.3326257  11.6840088  23.1348518  38.5629566  12.5981311
  23.4543446  37.4970064  12.3384652  23.5586026  38.8746268  14.0388740
  23.6670116  39.9386633  14.0418710  22.4982085  38.5307535  15.0537452
  21.6071762  39.1585186  14.8639404  22.2714985  37.4979729  14.9308551
  22.8366442  38.8149689  16.1001608  24.8609231  38.0849275  14.4828180
  24.6769819  36.9495839  14.5434251  25.7844408  38.2008437  13.7804387
  25.5180240  38.5563430  15.7949790  25.5710442  39.6528724  15.7081660
  24.9960022  38.1475325  16.7164960  26.5387973  38.2207333  15.8504204
  21.6769084  38.7563349  12.1757000  21.3090690  39.7601326  11.5194318
  20.8843295  37.7452974  12.4304590  21.3471286  36.8919196  12.8320459
  19.4189098  37.8887418  12.4302071  19.1893753  38.7616969  11.9536880
  18.6807905  36.7328969  11.8137533  18.7646904  35.7774742  12.3791391
  17.6870257  36.9617876  11.7803951  18.7747870  36.4170376  10.3895504
  17.7480197  36.5629402   9.5228211  16.7977895  37.0764382   9.8117040
  18.1317135  36.1218428   8.2702197  17.5295169  36.1922098   7.4646604
  19.4750214  35.6756383   8.2895998  20.3075135  35.1989937   7.3080653
  19.8685790  35.1315069   6.3073550  21.6669342  35.0130141   7.6216187
  22.3168480  34.6502276   6.8402006  22.1652444  35.3137691   8.9585790
  23.2081887  35.1264770   9.2292999  21.2258121  35.6742609   9.9447230
  21.4999873  35.8692273  10.9710247  19.8985862  36.0101443   9.6325916
  19.0975769  37.9791020  13.9237581  19.4866498  37.2043420  14.7849373
  18.2417408  39.0004962  14.2722877  18.0166466  39.6568822  13.5431377
  17.8083499  39.3263390  15.6559640  18.5362161  39.0356045  16.3610204
  17.6009182  40.8275829  15.8392871  17.2574051  40.8482114  16.9010580
  18.8372086  41.6952422  15.6003762  19.3378095  41.6212702  14.5937239
  18.6126848  42.8114452  15.6649742  19.4510741  41.5343971  16.4066676
  16.5079520  41.2774868  15.1225971  16.7663675  41.4645075  14.2265548
  16.5239229  38.5840299  16.0218064  15.8899784  38.0151322  15.1069733
  16.1755081  38.4897687  17.2918589  16.9054255  38.9310376  17.9362744
  14.9611031  37.8042622  17.8735715  15.0814455  36.7614161  17.6968990
  14.8544352  37.8597631  19.4235698  14.0096122  37.1216055  19.7255412
  15.7898820  37.5569443  19.9937050  14.3975414  39.2078380  19.9893753
  15.2202837  39.9375804  19.9590921  13.5631246  39.6072278  19.4640611
  14.1402147  39.1919019  21.5252844  13.2694184  38.5354724  21.6644501
  14.8999197  38.7421467  22.0315331  13.6726037  40.6042768  21.8972592
  14.5575358  41.3150931  21.8552989  12.8699761  40.9273634  21.1715466
  13.1052307  40.6793290  23.2673786  13.7444371  40.3415632  23.9668749
  12.9577930  41.6735120  23.4451718  12.2832644  40.1805086  23.4319713
  13.6427528  38.2208610  17.1794692  12.7488925  37.4349341  17.0920817
  13.5778860  39.4566478  16.5738071  14.3714487  40.0333884  16.8007976
  12.5026044  40.0549350  15.7537371  11.5380141  39.7230919  16.1517710
  12.5750474  41.5332465  15.9329482  13.1988822  41.9189276  15.0944433
  11.5409038  41.8831419  15.7262834  13.0009621  42.1343917  17.3335418
  12.8666377  41.3671624  18.0527259  14.0866918  42.2498026  17.3574916
  12.3037415  43.5109557  17.6186093  12.0716354  43.7459755  18.8192092
  11.9001776  44.3514364  16.7532313  12.4376787  39.5831231  14.2734301
  11.5168450  40.0354331  13.5632679  13.3407006  38.7332101  13.7949875
  14.0452062  38.3534761  14.4295552  13.5095192  38.2169465  12.5150056
  14.0896727  37.2444629  12.5781589  12.5331360  38.0009788  12.1620963
  14.2274508  39.1398307  11.5316389  14.5582311  38.6063182  10.5170156
  14.4039984  40.4364521  11.8072144  14.1263411  40.6655064  12.7890396
  15.2998185  41.4056785  11.1271819  14.9469602  41.5519186  10.1920326
  15.0956722  42.7578947  11.9028497  15.2635767  42.6693649  13.0262295
  15.8591677  43.3286554  11.5136337  13.7997769  43.4931473  11.4595735
  13.7767329  43.6066241  10.4617431  12.8698448  42.8904860  11.6714129
  13.5823644  44.8147258  12.1241437  13.6898929  45.8262231  11.4171260
  13.3201319  44.8519268  13.3726514  16.7894369  41.0491339  11.0789934
  17.5114690  40.8051322  12.0885219  17.2998308  40.8627499   9.8605583
  16.6842892  41.0655549   9.1078990  18.7433897  40.7030559   9.5026185
  19.0685629  39.9525811  10.2142628  18.7696433  39.9183260   8.1240724
  18.0793166  39.1281324   7.9601308  18.4033192  40.6091433   7.4197264
  20.1731555  39.5521931   7.6516486  20.8289297  40.4637236   7.6190263
  20.7282679  38.9469690   8.3791979  20.0833807  38.9149402   6.3101641
  19.6307332  37.8957123   6.4855616  19.4678568  39.4118884   5.5475120
  21.4273763  38.7011901   5.7778656  22.2249824  39.1888142   6.1964685
  21.7624515  37.9788678   4.7724869  22.9729074  37.9903109   4.4283345
  23.6358591  38.6094767   4.9470448  23.2843679  37.4150403   3.6663948
  20.9154339  37.2881200   4.0841915  19.9621572  37.3723991   4.2603161
  21.1342292  36.6205784   3.3457926  19.6053433  41.9798778   9.4906417
  19.2721986  42.9947645   8.9049575  20.6733951  42.0537447  10.2811432
  20.8526502  41.2702881  10.9453969  21.3988292  43.3234048  10.5726000
  21.2640420  44.0529359   9.7944953  20.7905353  43.8478974  11.8760443
  20.7490998  43.0305302  12.6240655  21.3831919  44.6825486  12.2630539
  19.3670510  44.3550430  11.8025745  19.1730483  45.0318555  10.9275883
  18.8182379  43.4869938  11.5703668  18.9790935  45.0133882  13.0930659
  19.0639230  44.2762709  13.8580800  19.8059107  45.8260673  13.2402365
  17.5493688  45.5504010  12.9710585  17.4437956  46.0649696  12.0053072
  16.9018148  44.6600110  13.0283773  17.3483814  46.5291201  14.0811902
  17.4543049  46.1413596  14.9831816  18.0775617  47.2896309  13.9970235
  16.3928009  46.9602501  14.0423914  22.8773656  43.0825662  10.7133864
  23.2964129  42.0909911  11.2741105  23.6545020  44.0452983  10.2050599
  23.1733332  44.8124426   9.6694753  25.0998785  44.0386184  10.3861147
  25.2716181  43.0144816  10.4460725  25.7538490  44.6787407   9.1258335
  25.1225917  45.4928848   8.7451653  26.7040593  45.0793819   9.3697646
  26.0167270  43.5917988   8.0787091  26.7796315  42.8906861   8.5836610
  25.1158801  43.0669597   7.7680455  26.5470609  44.3495263   6.8347393
  25.8400670  45.1165362   6.5094168  27.5176483  44.8954226   7.0257443
  26.8413804  43.2162357   5.7766824  27.5341075  42.5180242   6.2373017
  25.8991091  42.6677573   5.7217887  27.4028266  43.7180559   4.4534714
  27.0555347  44.6292195   4.2352892  28.4356843  43.6907052   4.3305462
  26.8715023  43.2634427   3.7030145  25.5865104  44.6938047  11.6580875
  25.2792353  45.8302048  11.9313535  26.3569870  43.9331267  12.4662969
  26.7139374  43.0412505  12.1007618  26.7986206  44.3718344  13.7921165
  25.9833673  44.7009079  14.3169100  27.3308489  43.0828881  14.4768711
  26.7575391  42.2473016  14.2202008  28.3855989  42.9638444  14.1706981
  27.4059458  43.1820630  16.0673320  28.0417948  44.0050620  16.3641884
  26.0220563  43.2530765  16.6588489  25.4511183  42.5404211  16.1029820
  26.0414305  42.9846259  17.7207101  25.5267343  44.2247929  16.5792602
  28.0276788  41.9006912  16.5187045  29.0094555  41.6993997  16.0856747
  28.3021561  41.8252018  17.6108627  27.4224742  41.0435619  16.2362921
  27.8704345  45.4797223  13.7573227  28.9830260  45.3297634  13.3283768
  27.5165078  46.6367056  14.3811177  26.5368851  46.7509993  14.6036185
  28.1600599  47.9540658  14.1250324  29.2225664  47.8343962  14.1221779
  27.6927103  48.5136179  12.8044834  28.0101484  47.8401852  12.0054351
  26.6155213  48.6110947  12.8583404  28.3405549  49.8744868  12.4807201
  28.0857089  50.5650042  13.2595436  29.3783577  49.7057882  12.5792505
  28.1530326  50.3764847  11.0179528  28.6016046  51.3592506  10.9000979
  28.7520815  49.6213051  10.3798356  26.7177705  50.4577679  10.4999875
  26.6586892  50.8952744   9.5352814  26.4790221  49.4016136  10.3750208
  25.7808345  51.2410198  11.4660993  26.0618533  52.1377725  11.8657484
  24.8518410  51.5319215  11.0480341  25.5262435  50.6058233  12.2351945
  27.7620713  48.8162748  15.3475445  26.8935655  49.6647541  15.2945182
  28.4378331  48.7059859  16.5485701  29.3529966  47.6178413  16.9207567
  30.4425851  47.9595144  16.8458365  29.1591660  46.6969162  16.3109181
  29.0300896  47.3548710  18.3766105  29.9350701  46.8281363  18.7314205
  28.1447717  46.6649658  18.3344525  28.6936794  48.7614899  18.9481990
  29.5513362  49.3474739  19.2712057  28.0758762  48.5604423  19.8668374
  27.9447006  49.4280742  17.7553725  26.9044575  49.2956591  17.8430418
  28.2189643  50.9675963  17.7994517  29.2058299  51.5463108  17.3399220
  27.3858405  51.6693875  18.6028834  26.4494906  51.2388267  18.7154644
  27.7295837  52.9611867  18.9916278  27.8573538  53.5364916  18.0479095
  26.5189046  53.6708033  19.6550725  25.9898018  52.9989693  20.3288396
  26.8894491  54.4591891  20.2908557  25.4973039  54.0955697  18.5554266
  25.9634118  54.7076717  17.7275187  25.1565311  53.1382413  18.1719198
  24.2909709  54.8663928  19.0899484  23.6352946  55.2852608  18.2461253
  23.6214401  54.1971140  19.6648415  24.5428262  55.9312620  20.0256009
  25.4777747  56.2356951  20.0928702  23.7111447  56.6108943  20.7875741
  24.3064065  57.4198117  21.6141924  25.2432062  57.6175512  21.4860831
  23.7951960  57.9933045  22.3354053  22.4420303  56.4195989  20.7764322
  22.1254044  55.6830462  20.1914039  21.7669813  56.9469993  21.3529593
  28.9331754  53.0841606  19.8971411  29.5348784  54.1209165  19.9024934
  29.3882383  51.9698027  20.5205676  28.9334153  51.0781216  20.4836703
  30.5728026  52.1102548  21.4208182  31.1851681  53.0276403  21.2179065
  30.1525385  52.2348133  22.8655631  29.6656426  51.3175593  23.1976010
  31.0086631  52.3885999  23.5014253  29.2884692  53.3664932  23.2249797
  29.6938059  54.5984480  23.5627268  30.7722700  54.8312614  23.6122317
  28.6658495  55.4823284  23.7208603  28.8426114  56.4894849  24.0331249
  27.4773082  54.7991275  23.5471290  26.1280017  55.1716580  23.7732150
  25.9144858  56.2165088  24.0094981  25.1267661  54.1985159  23.7476926
  24.1403305  54.4966163  24.0436646  25.4833969  52.8585743  23.5028224
  24.6917999  52.1453979  23.4931614  26.8092198  52.4753278  23.3335378
  27.0227041  51.4263709  23.2119237  27.8247192  53.4284593  23.3567159
  31.4461051  50.8707929  21.2652296  30.9102227  49.7097752  21.2832051
  32.7300493  51.0779613  21.0635192  33.0667447  52.0340454  21.0328033
  33.6791446  50.0215798  20.9783328  33.2219610  49.0494233  20.7832172
  34.6778391  50.2910317  19.8437540  35.2817925  51.1781532  20.0164185
  35.3703482  49.5063670  19.8813484  34.0728280  50.3371226  18.3919901
  33.2667923  51.1300523  18.1356640  35.2315743  50.5573449  17.3364142
  35.9085016  49.7146281  17.3975051  34.7798097  50.5545859  16.3534098
  35.7012915  51.5094444  17.4922259  33.3677875  49.0254802  18.0792176
  32.4248056  48.9292746  18.6482385  33.0030074  49.0317922  17.0849425
  33.9449760  48.2077224  18.2995894  34.4178673  49.8870339  22.3322938
  35.0407035  50.7725694  22.9414157  34.4064706  48.6063904  22.6974309
  33.6407932  48.0589992  22.3475217  35.1784255  47.9384556  23.8183859
  36.0702225  48.5937608  23.9941119  34.4736767  47.9271400  25.1725357
  34.1162560  48.9243805  25.4786271  33.6563704  47.2549145  25.1796077
  35.3957012  47.4514884  26.3309114  35.0330254  47.6398702  27.5042171
  36.4870224  46.8537177  26.1156113  35.8332239  46.5658726  23.3905928
  35.1251729  45.5964351  23.0178250  37.1522170  46.5042221  23.3488260
  37.5388977  47.3479568  23.6761350  37.9139122  45.4278337  22.7713675
  37.7381400  45.2050681  21.7014283  39.4035192  45.8875620  22.8854515
  39.5809429  46.1086896  23.9382585  40.0735256  45.0827090  22.5769222
  39.7355671  46.6423003  22.1697109  37.6868676  44.1089283  23.5598630
  37.9140612  43.0221295  23.0495322  37.3664667  44.1794314  24.8408845
  37.1988737  45.0903845  25.1935134  37.0387720  43.0612379  25.7995862
  37.9180180  42.4099997  25.9166348  36.6708446  43.6771763  27.1370677
  35.8549019  44.3840925  27.0104787  36.3402411  42.8608113  27.7632935
  37.9339303  44.2345460  27.8196666  38.5496877  43.3615215  27.9978170
  38.5033950  44.8107620  27.1187976  37.6483185  44.8029531  29.2058960
  37.0368360  44.0145578  29.7536191  38.6474744  45.0144894  29.6644603
  36.9565259  46.0534113  29.0438182  36.8030652  46.3170887  28.0672519
  36.8316301  47.0000654  29.9622237  37.0694597  46.7016910  31.2518828
  37.2549639  45.7142297  31.4608787  36.6358396  47.2573802  31.9895862
  36.3397641  48.2224561  29.7885496  35.7810719  48.3485070  28.9338204
  36.0626436  48.7589222  30.6367737  35.9696325  42.1190019  25.2851188
  35.9574456  41.0107891  25.7464856  35.0206765  42.5977657  24.4409083
  35.0804901  43.5464234  24.1355191  33.9270968  41.7935593  23.9122925
  33.8143528  40.9694942  24.6072323  32.5496919  42.4833719  24.0480888
  31.7831754  41.6746220  23.9875604  32.3877098  43.1874171  25.4273111
  32.5248166  42.4237162  26.1623387  33.0661635  44.0042124  25.5488097
  31.4117795  43.6225574  25.5008942  32.1384537  43.4013512  22.8591016
  32.8564038  44.1876942  22.6260194  31.9780151  42.8197211  21.9581149
  30.7401229  44.0328152  23.1402440  30.4214618  44.5381078  22.1522619
  29.9990778  43.2728453  23.4156616  30.7707726  44.7762573  23.9108779
  34.2475434  41.1948283  22.5275537  33.4367748  40.4985253  21.8732540
  35.3688594  41.5373355  21.9193280  36.1358422  42.0070414  22.4778088
  35.6943357  41.0903068  20.5083345  35.2887403  40.1961602  20.4993900
  35.0264181  41.9055670  19.3613589  34.9303271  41.3145600  18.4907440
  34.0233571  42.1759792  19.6805897  35.6440577  43.3194065  19.1604043
  35.2044481  44.3996050  19.9709577  34.5344852  44.1898349  20.8077926
  35.6803475  45.6658552  19.7850389  35.3485248  46.4889422  20.3648781
  36.4407567  45.9280244  18.6429321  36.7684931  47.2050455  18.3788003
  37.0227262  47.6027090  19.2329325  36.8962952  44.8656659  17.7949867
  37.4519336  45.0291006  16.9186490  36.5353210  43.5612512  18.0969286
  36.8721377  42.7000353  17.5242697  37.1729976  40.7349136  20.1943826
  37.4895764  40.1142285  19.2718644  38.1242235  40.9874947  21.1506570
  37.8249339  41.5586760  21.9215416  39.5144845  40.5791767  21.0813767
  39.8945421  41.0705852  20.1860573  40.3913343  41.1653086  22.1379171
  40.0332320  40.7042142  23.0603710  41.4103901  40.7776755  21.9813659
  40.4835774  42.5564804  22.2639622  39.5543990  42.7708770  22.6155429
  39.6861120  39.0483016  20.9984806  40.6749382  38.5364738  20.4585459
  38.7403370  38.3014760  21.6086044  37.9295400  38.8217309  22.0230128
  38.8378317  36.8504402  21.8989522  39.6962390  36.4487187  21.3648936
  39.1435739  36.7357908  23.3771093  40.1526445  37.2179035  23.5328645
  38.4787879  37.2704150  23.9302719  39.3195342  35.3540442  23.9990217
  39.7976514  35.3264047  25.1920233  38.8945509  34.3501476  23.4120149
  37.5766876  36.0498649  21.5401652  36.5202188  36.4207576  22.0311728
  37.7340644  35.0215268  20.6741310  38.9790271  34.6392598  19.9276254
  39.6441731  34.1318272  20.5566518  39.5592522  35.5054279  19.5343046
  38.4994546  33.7356945  18.7315228  39.2405316  32.9923271  18.4192244
  38.1571295  34.3862217  17.9350753  37.3415462  33.0448233  19.4540279
  37.5647197  32.2708036  20.1819344  36.8359025  32.6351138  18.6076587
  36.6616375  34.2746040  20.1348734  36.1165550  34.8439785  19.3574996
  35.6475597  33.7224580  21.1028729  34.4801090  33.7226676  20.8643639
  36.0817593  33.3666686  22.3187985  37.1037333  33.6108879  22.5302699
  35.1126685  32.9204745  23.3551580  34.2088917  32.3946888  22.8499157
  35.7738176  31.8785076  24.3253174  36.6259659  32.3965054  24.8700415
  34.9812801  31.6720236  25.0983882  36.3798229  30.6208890  23.6964006
  37.0849689  30.8917890  22.8784421  37.2016440  29.8040783  24.7185017
  36.5871094  29.4159765  25.5449600  37.6330927  28.8514883  24.3671771
  37.9756026  30.3635193  25.1350573  35.2373474  29.7274005  23.1206527
  35.6939138  28.7474600  22.8401205  34.4791189  29.4781266  23.8537352
  34.7150827  30.2528559  22.3260145  34.3817775  34.0313046  24.0773031
  33.2063506  33.8986121  24.4617449  35.0068105  35.2151406  24.2541947
  35.8604758  35.2969185  23.7789980  34.2872580  36.3641268  24.7426539
  33.6121523  35.9104975  25.4864655  35.3386599  37.1935039  25.4096823
  34.7829430  37.9103820  26.0428413  36.0250186  36.5616136  26.0059552
  35.7924490  37.7738078  24.6351785  33.3780501  37.0504437  23.6872025
  32.3032358  37.5134908  24.0817012  33.7155966  36.9956370  22.4238473
  34.6699774  36.8785856  22.1087532  32.8538276  37.3792873  21.3590698
  32.4052575  38.3638100  21.5936178  33.6518199  37.3869553  20.0762279
  34.6011478  37.8603844  20.1683323  33.8102019  36.3162586  19.8382453
  32.8682097  37.9551967  18.8949860  32.1252521  37.2027411  18.7329000
  32.1465842  39.2762744  18.9740545  31.3905751  39.0694814  19.8045045
  32.8362210  40.0485030  19.2485636  31.6765936  39.4460413  18.0866752
  33.7989113  38.0484945  17.6814138  33.2100711  38.1669779  16.8132408
  34.3690041  38.9622819  17.8169830  34.5551040  37.2699918  17.6082604
  31.6305170  36.4364517  21.1739649  30.6083215  36.8929120  20.6660196
  31.7483045  35.1482344  21.4536123  32.7086906  34.7671036  21.6102252
  30.6258910  34.1754015  21.4346051  30.1992909  34.1552377  20.4218365
  31.1711799  32.7797482  21.7698223  31.9820458  32.5411460  21.0327464
  31.5378009  32.7883749  22.8014043  30.0301086  31.7941436  21.7025807
  29.3419059  32.0407704  22.5399071  29.5644178  31.9518746  20.7168236
  30.4989175  30.3370311  21.7874039  31.0840985  30.0510091  20.8664421
  31.1125077  30.1437920  22.6914861  29.2618017  29.4896868  21.8520691
  28.6139796  29.8434043  22.6604527  28.7185839  29.4756398  20.9238321
  29.7290060  28.1449244  22.2480361  30.2492119  28.1357471  23.1168439
  28.8689416  27.5875001  22.4157836  30.4039775  27.6976621  21.5957360
  29.5513104  34.5616883  22.4719178  28.3818694  34.4984532  22.1698126
  29.9766116  35.2134661  23.6215292  30.9487240  34.9978707  23.9216351
  29.1057670  35.7357773  24.5504024  28.4014243  34.9170540  24.7171478
  29.8126052  36.0131725  25.9040991  30.6312561  36.6062078  25.6882943
  29.1340257  36.5770122  26.5703469  30.3360940  34.6989330  26.5633530
  30.9845849  34.2283560  25.8607140  30.7098531  34.9655230  27.5150049
  29.2060284  33.6372206  26.7634600  28.0555413  33.9630471  27.1136181
  29.4725916  32.4696354  26.3681002  28.3398792  36.9443015  23.9588383
  27.0748541  37.0302959  24.0989155  29.0612473  37.8780311  23.2810363
  30.0478650  37.8420147  23.2081144  28.3479840  39.0703357  22.8730113
  27.6910853  39.4164573  23.6984217  29.4128028  40.1867902  22.7271776
  29.9224896  40.3432566  23.6817790  30.2516814  39.8717402  22.0867516
  28.7863341  41.4315809  22.0644500  27.9271403  42.2003964  22.8860769
  27.5996442  41.7672586  23.8393875  27.3466208  43.3584553  22.3414565
  26.6715193  43.9258183  22.9268836  27.7135896  43.8185944  21.0484824
  27.1395870  44.5992575  20.6643533  28.5088389  43.0408646  20.2219564
  28.8637080  43.4419518  19.2514865  29.1404881  41.9524145  20.7869752
  29.9438431  41.4476817  20.2469941  27.3734636  38.7610067  21.6412893
  26.3124452  39.4048335  21.5685949  27.6726435  37.7217094  20.8524548
  28.5433883  37.2059803  21.1233207  26.9594122  37.3186809  19.6582547
  26.9139015  38.1508297  18.9505803  27.6833562  36.1915806  18.8910903
  28.0834104  35.5829359  19.6642702  26.9656825  35.6350744  18.2969128
  28.7158436  36.7255658  17.8885566  28.3369470  37.1562013  16.9204052
  29.3546272  37.4569799  18.4192133  29.7099071  35.6455104  17.4203828
  30.5648800  36.0931925  16.8933769  30.1759211  35.1880768  18.2973112
  28.9491006  34.6272556  16.4764066  28.1213453  34.1375331  17.0811716
  28.3417080  35.1172582  15.7081346  29.9531000  33.6912391  15.8504023
  30.6665433  34.2694282  15.4859414  30.3880252  33.0449836  16.5291475
  29.5396166  33.1185222  15.1024071  25.5213006  36.8472502  19.9884449
  24.5657837  37.1571329  19.2428954  25.3946520  36.1855687  21.1482874
  26.1925715  35.8960466  21.6741407  24.0618510  35.8943540  21.6973975
  23.4993811  35.4937476  20.9249021  24.1642077  34.8120083  22.8204482
  24.9248502  35.1604268  23.6094428  23.2411913  34.6650529  23.3653788
  24.6226023  33.4368318  22.3027541  25.5716246  33.4378233  21.7355992
  24.7172652  32.7696217  23.1561067  23.6917484  32.7943261  21.2627172
  22.9403100  31.9171149  21.6132798  23.7131050  33.1826831  20.0683738
  23.3164234  37.0591071  22.3136782  22.0963992  37.1634001  22.1166072
  24.0486209  37.9863386  22.9554477  25.0735993  37.9277772  23.0151512
  23.4329781  39.2275145  23.4202470  22.4604728  39.0688792  23.8904693
  24.4434827  39.8585347  24.4048427  24.7433686  39.1316146  25.1944827
  25.3577962  40.1527095  23.8620203  23.9860085  41.1044618  25.0793917
  23.5382923  41.1281751  26.4199761  23.4735067  40.2056293  26.8699326
  23.1119318  42.2902192  27.1155876  22.8320947  42.2430949  28.1551215
  23.3166093  43.5356421  26.5023511  23.0594185  44.4791654  27.0315577
  23.7778778  43.5350759  25.1478446  23.7644368  44.4406706  24.5337880
  24.1353578  42.3389768  24.4625353  24.6710257  42.3571363  23.5882791
  22.9584024  40.1699122  22.3270428  21.8098257  40.5793458  22.3316917
  23.7645962  40.4036357  21.3578110  24.6550370  39.9413061  21.3375077
  23.3464140  41.3207373  20.3534427  22.9651230  42.1906614  20.9061452
  24.5552331  41.6980768  19.5592356  24.3200502  42.5136199  18.9028281
  25.3905427  42.0090876  20.2573802  24.9754893  40.8018611  19.0181150
  22.1962779  40.8311502  19.4437267  21.4669979  41.6983918  18.9336120
  21.9854189  39.5323474  19.2491262  22.5598994  38.8413457  19.6778146
  20.7759410  39.0209263  18.5529867  20.6567538  39.6136297  17.6175764
  21.1665889  37.6234340  18.2169564  21.0277092  37.0012057  19.0991709
  20.4741209  37.1801425  17.5104578  22.1376502  37.5062413  17.8168726
  19.4071919  39.2042976  19.2799526  18.3427661  39.3303249  18.7159375
  19.5358407  39.3548196  20.5934191  20.4811478  39.2281911  20.9765494
  18.4732658  39.5368516  21.6190951  18.9276254  40.2689492  22.2536750
  17.5813635  40.0303594  21.3395786  18.0746857  38.2610159  22.3941691
  17.0132680  38.2237920  22.9503339  18.9464246  37.2620493  22.3733940
  19.8932916  37.4777065  22.1468670  18.8098539  36.0307470  23.1744232
  17.7364574  35.6838351  23.0681863  19.6795882  34.8832780  22.5281355
  20.7171228  35.1621048  22.5053753  19.5118115  34.0503543  23.1738405
  19.2712256  34.4896636  21.0938774  18.2615142  34.2050840  20.9659820
  19.4625728  35.3519048  20.4933238  20.1637634  33.3637520  20.5792162
  21.2343599  33.5531493  20.6995290  19.9974872  32.4090037  21.1394649
  19.8291489  33.1214197  19.2241280  18.9130203  33.3928825  18.9279134
  20.5123020  32.3202084  18.4571550  19.9908098  31.9810686  17.3020002
  19.0242272  32.1037367  17.1233555  20.4604533  31.3709370  16.6624345
  21.7184925  31.9197970  18.6441172  22.2886888  32.2172231  19.4127440
  22.1598655  31.3255498  17.9737565  19.2410824  36.2431941  24.6638965
  18.4692083  35.7507921  25.4873220  20.4041105  36.8264644  24.9528584
  20.9124090  37.1806583  24.1480886  20.9550787  36.9667023  26.3309934
  20.8574303  35.9978688  26.8006133  22.4764437  37.2174418  26.1325799
  22.8582539  36.5549394  25.3214675  22.8112411  38.1809517  25.7435717
  23.2602156  37.0472274  27.4572682  23.0647336  37.9586958  28.0655942
  22.8142490  36.1993476  28.0575817  24.7329549  36.9102054  27.0471032
  24.7969189  35.9934184  26.4849110  25.0759716  37.7412074  26.5338351
  25.5401543  36.6676947  28.2701147  25.4664514  37.4996508  29.0544964
  25.1084955  35.7482206  28.7129928  26.9897350  36.4083027  27.9759371
  27.5339626  36.4987058  28.8306712  27.0837771  35.5054089  27.5224423
  27.3452088  37.1246881  27.3616214  20.2714883  38.0441369  27.2235745
  19.7717682  39.0708352  26.6919876  20.1384166  37.8828068  28.4746619
  46.2901923  34.5759484  52.0804265  50.1083236  34.1917292  50.0585754
  49.3177080  35.2901009  50.9368949  47.8320908  35.1596385  50.8779666
  49.8908541  36.7057533  50.9821208  49.7778721  34.5558426  52.4925221
  49.1193512  34.4891196  53.9620449  47.6099795  34.5854309  53.8432426
  49.7808107  35.5203381  54.9511345  49.5652376  32.8998697  54.3159061
  48.8621586  31.4644569  54.5007461  47.6512918  31.7234020  55.3316955
  48.6925549  30.8295521  53.1416647  50.0800946  30.8404404  55.3786115
  49.8255478  29.5700847  55.9752006  48.9582039  29.1582563  55.3987094
  49.6786481  29.6444496  57.0135778  51.0177133  28.6491581  55.9223644
  51.6023848  29.0013831  56.7432922  50.7555868  27.2702518  56.1124971
  51.4004953  26.5459478  55.1129982  52.0309643  25.7207757  55.6041277
  50.5057694  25.7906959  54.2627674  49.4996079  26.2628474  53.5918430
  49.4715036  27.3721202  53.4377193  48.8178090  25.4338276  52.9085111
  49.3324898  24.1980514  53.2123086  49.0111784  22.8177397  53.0077674
  48.0510928  22.3521630  52.2295531  47.7988845  21.3276248  52.1099359
  47.5048997  23.0409177  51.7275238  49.8300630  21.8707914  53.4707338
  50.9178523  22.2566675  54.1538344  51.5487600  21.4209161  54.5123014
  51.2672698  23.5152917  54.4013660  50.4296511  24.4303247  53.9687949
  51.6529166  28.7916993  54.5202410  50.8540702  28.8527249  53.8071157
  52.5993354  29.8629900  54.3435860  52.0260273  30.5740813  54.6699580
  52.4000826  27.4431079  54.3151129  52.5392939  27.1697394  53.2307326
  53.7294688  27.4057249  54.8865988  54.0589142  28.3226078  54.8711198
  40.3795956  38.7396118  25.4991108  39.6472283  39.3176047  25.5701088
  38.9505369  39.0977949  26.7611238  38.5953963  38.0188069  26.8277484
  38.0575924  39.7330893  26.7756072  39.9746524  39.4147197  27.8314185
  40.9419571  39.3081456  27.3121156  39.7812447  40.7607613  28.3050639
  40.0041943  40.8106324  29.7003915  40.7940898  41.6002801  29.8838539
  38.7412224  41.0734038  30.3597056  37.5065690  40.4791823  30.2758626
  37.5010040  39.5831390  29.6657707  36.5055551  40.9988037  31.0217947
  37.2278232  42.1371683  31.5272197  36.8109149  43.2530140  32.2514773
  35.5807000  43.6184347  32.6128758  35.5437483  44.3070503  33.3538897
  34.7663620  43.1775763  32.2701961  37.6330151  44.2321161  32.5781770
  38.9227961  44.0529522  32.2840260  39.6113220  44.8086368  32.6050681
  39.4686875  43.0830423  31.5260893  38.5780759  42.1407146  31.1754827
  40.0946321  38.4452656  28.9782193  39.1676457  38.0449949  29.3332612
  40.6015110  39.4194679  30.1049868  40.2290224  39.0178978  30.9908777
  42.0179801  39.4354110  30.2089858  42.2778238  38.7469052  30.9186869
  41.0234332  37.4194569  28.6262764  40.7793802  35.9002680  28.9818050
  41.8153839  35.1716091  28.2284807  39.3547103  35.5924328  28.7557482
  41.0013777  35.8845162  30.5769236  42.3176551  35.6646722  31.0379578
  43.0805848  36.1591762  30.4289593  42.5391271  34.6602476  31.1544544
  42.3672723  36.3501119  32.4191589  43.2591515  36.1789362  32.8921339
  42.1936672  37.7723145  32.3978523  42.1384615  38.1750134  33.7917438
  43.1918712  38.3404688  34.1128024  41.2827505  39.4477370  33.7787215
  39.9002109  39.5810913  33.8243874  39.3096702  38.7463132  33.4327809
  39.4502519  40.7239354  34.1619232  40.5964080  41.4097264  34.5286825
  40.8066263  42.7240150  35.1758651  39.8844062  43.5866934  35.6222171
  40.2858653  44.4695436  35.9961639  38.8742129  43.2886622  35.7196008
  42.0609187  43.2486158  35.2223549  43.0564248  42.4980123  34.8134594
  44.0346131  42.9438313  34.7947957  43.0185293  41.2280298  34.3233504
  41.7530793  40.7325185  34.1683107  41.3061530  35.9655534  33.4610874
  40.1997156  36.1664820  33.0542375  41.5903980  37.0352615  34.5217873
  40.6144731  37.2395642  35.0726888  42.5202384  36.4977333  35.4230276
  42.2333225  35.5985783  35.5380236  41.4745242  34.6013341  33.7933574
  40.2845848  33.8713901  34.5758100  40.7109793  32.4931098  34.6389816
  39.0374625  34.1567906  33.7992235  40.1744523  34.4902300  35.9908751
  39.0603098  34.3277720  36.8221874  39.0460073  33.4227544  37.3156257
  38.1302394  34.4499225  36.3836152  39.2118109  35.3213092  38.0026758
  40.0155396  34.9617028  38.5757198  39.6070965  36.6216861  37.5061600
  38.8127437  37.6134550  38.0682048  39.4075461  38.4534156  38.3296623
  37.7705915  37.9337942  37.0420790  37.8164142  37.6052785  35.7186230
  38.4531609  36.7473006  35.3118146  37.1432857  38.3477929  34.8960806
  36.5852252  39.2976636  35.7289854  35.7976533  40.4252636  35.5510395
  35.3524818  40.9135121  34.3936125  35.0286341  41.8640829  34.3684965
  35.8079092  40.6179749  33.5151150  35.3637971  41.1006599  36.6196713
  35.8112401  40.8386581  37.7932398  35.5367859  41.4608804  38.6437606
  36.6192777  39.7980803  38.1388406  36.9819415  39.0548704  37.0530169
  38.0406667  35.5405783  38.8942645  37.1429340  35.4923495  38.2502163
  38.1928192  36.9576463  39.3113873  37.2314360  37.3961879  39.4749821
  38.9735422  37.2253825  40.4378340  38.4664931  37.0496650  41.2198936
  38.0605090  34.5088547  39.8693259  36.8951198  33.4470195  40.1662443
  37.2906932  32.6664614  41.3775576  36.4645919  32.7765686  38.8992119
  35.7169693  34.3786260  40.5622834  35.7074657  35.2044155  41.6745825
  36.6715133  35.7314656  41.6741946  35.7498200  34.6449595  42.5818293
  34.5613519  36.2389392  41.6772922  34.7192856  36.9207361  42.5412046
  34.7240252  37.0637384  40.4853378  33.5408059  37.7738674  40.4685048
  33.7241409  38.7668994  40.8732982  33.1815566  38.0058096  38.9805968
  33.5840455  37.2421091  37.8518721  34.2698331  36.3512045  37.9501169
  33.3743741  37.8487677  36.7321640  32.7945005  39.0879859  37.1004093
  32.4942495  40.2698025  36.4329832  32.4874678  40.4051804  35.1129620
  32.0613111  41.2659997  34.7604840  33.0588806  39.8891702  34.5204612
  31.8737436  41.2327780  37.0620490  31.7805200  41.2185798  38.3785329
  31.2084813  42.0669631  38.8178672  32.1781783  40.2223285  39.1986391
  32.7148353  39.1720860  38.4845078  33.1421829  35.6391584  41.5526982
  33.1531407  34.9635631  40.7004711  32.4571679  36.9463868  41.1376738
  31.6827916  36.6653523  40.4832880  31.9534198  37.8080936  42.1663158
  31.7146875  37.2668505  43.0101679  32.7032474  35.1259876  42.8100364
  31.7066724  33.8988742  42.7693083  32.2081410  32.9446349  41.7527551
  31.4081540  33.4780831  44.1541968  30.4630646  34.4925642  42.0109899
  29.4651525  35.2544223  42.7058468  29.6913590  36.2773477  42.5375307
  29.4625571  34.9720514  43.7461514  28.0531788  34.9650978  42.2210757
  27.3556598  35.5359326  42.8848788  27.7040894  35.3455863  40.9316228
  27.7645436  34.2018064  40.1029157  26.8242652  33.9780413  39.7168486
  28.6062309  34.5282773  38.9286450  29.9545651  34.2542359  38.6517817
  30.6287570  33.9804538  39.4953910  30.2949543  34.3822197  37.4246750
  29.1176380  34.8030971  36.8452883  28.8779054  35.2152016  35.5215067
  29.7018753  35.0299024  34.5171907  29.4324692  35.3434546  33.6022233
  30.5127233  34.4326183  34.6704527  27.7075087  35.8667539  35.2419401
  26.8176532  35.9795387  36.1634503  25.9476078  36.5204773  35.8556627
  26.9157067  35.5612247  37.4413036  28.1223065  35.0597269  37.7462996
  27.8553196  33.4438554  42.2928854  28.6481008  33.0457022  42.9990998
  28.2262589  32.9925979  40.9129934  29.3081256  32.8105138  40.8255906
  27.5738416  31.7965290  40.4400061  26.7214612  31.8624882  40.8955700
  26.5300070  33.0082406  42.5250655  26.1838712  32.4577304  43.9850189
  27.3164441  31.8641087  44.6088283  24.9461992  31.7067400  43.8538106
  25.7080765  33.7152188  44.8008609  26.5339216  34.3693628  45.7565970
  27.4856670  34.7157042  45.3785547  26.8366926  33.6723758  46.5662566
  25.7701989  35.4759069  46.4110639  26.1634353  35.7536167  47.3502264
  25.7258326  36.7194174  45.6808598  24.5087968  37.3870452  45.9351305
  24.7788000  38.3311433  46.4453276  23.6979503  37.6938520  44.7336813
  23.0813936  38.8949051  44.4631614  22.9720410  39.6646476  45.1779548
  22.5494795  38.9730619  43.3012623  22.9401651  37.7845470  42.6543982
  22.8879085  37.2983311  41.3279705  22.4461290  38.0111767  40.3433926
  22.5838106  37.8362366  39.3526236  22.0352843  38.9599945  40.4471805
  23.3662329  36.1096517  41.0167206  23.9215484  35.4003629  41.9854614
  24.2842993  34.3876015  41.7869980  24.0426464  35.7110032  43.2263798
  23.5043069  36.9137228  43.5367863  24.2666398  35.1255310  46.6650270
  23.8195191  34.8201038  45.7308942  23.7773994  36.5625410  47.0113736
  22.6796770  36.7019707  46.8234178  24.2118006  37.0023164  48.3097479
  24.1374877  36.2672155  48.9597089  24.1864106  34.2016538  47.6885448
  23.2594432  32.9843000  47.7248576  23.5961067  32.2721134  48.9553419
  23.4205862  32.3816661  46.3825682  21.8253677  33.6521450  47.7436118
  21.4116157  34.4882581  48.8312669  22.1823744  35.2474136  49.0156456
  21.2355031  33.8941448  49.6983290  20.1616566  35.2270266  48.3709000
  19.8157788  35.9408525  49.0852396  20.4847216  35.9245542  47.1966315
  19.2420469  36.2858991  46.6040013  19.0177336  37.2584114  47.0008971
  19.3346742  36.4887538  45.1509259  18.9292943  35.6808896  44.1428299
  18.7273265  34.6458301  44.1997527  19.0281868  36.2396834  42.9709890
  19.4543867  37.5750271  43.2669490  19.4147955  38.7909338  42.5187807
  19.2002359  38.8114683  41.2194430  19.1706598  39.6683283  40.7505331
  19.2948668  37.9514165  40.6926336  19.4627885  39.9873452  43.0192932
  19.5929814  39.9998633  44.3451241  19.6456648  40.9235407  44.8305372
  19.6683365  38.9800578  45.1812539  19.5165420  37.7391321  44.6127174
  18.9571651  34.2796189  47.9638304  19.2884630  33.4031856  47.4194706
  18.2605412  35.2276574  47.0687848  17.7831688  34.6973526  46.2387894
  17.2557160  35.9815445  47.7895071  17.0243788  35.2839178  48.4167299
  18.1073219  33.7906767  48.9967600  18.4377192  32.9228486  49.3673771
  68.6300370  68.3743147  59.0477061  41.6454939  10.7431788  71.2842549
  19.8712877  28.4882253  70.3120949  26.6934002  49.0947918  86.6985735
  28.9992093  76.6418889  11.2821104   1.7614884  58.5018233  52.4849983
  59.9547458  64.3627002  19.0198009  32.6594438  73.9731311  67.0414004
  73.6323903  50.4626833  21.1995644  18.1613481  29.3435281  10.7216978
   5.6125555  27.3570871  43.9199210  31.6986676   4.6084944  33.2521658
  63.9704706  18.7920175   8.8624276  60.1261969   6.0772333  67.3865637
  44.5812312  32.6429435  72.2448484   6.5418511  32.6963962  58.5349970
  20.3824590   8.6740120  18.1493535  45.9192825  33.1795102  -5.9244645
  37.8304339  71.2949191  42.2089798  55.1108976   6.1895201  38.5106574
   5.2047081  46.4051686  71.3172909  28.5748763  69.0743518  20.6215231
  17.7974453  68.5458946  54.5268802  50.3536413  83.9279851  53.1630629
  25.9457873   0.0792445  27.7876110  30.1247669  65.7531597  77.3342891
  22.9819750  64.5976083   3.6755287  66.0755149  42.8358301  33.1209936
  66.7275490  26.3075576  57.2802369  47.9217939  40.2763085  38.5854564
  23.2892217  33.2840101  44.1976795  29.4225123  21.5299118  54.6120574
  39.6972375  64.7443634  45.9222515  34.1316381  33.2446815  16.1326957
  40.4056275  65.5114094  35.7564473  11.1016544  45.9249885  18.0819660
  32.7025000  60.3974611  18.8455763  67.7661158  28.5873764  48.0620116
   5.6062945  45.6200951  68.5012099  64.6387288  45.7579897  31.4189009
  34.2948295  78.5433458  67.4648599  43.2259210   3.6371642  38.2494635
  46.1860144  62.6907686  20.8998344  18.8532373  64.5569037  65.9209837
  26.9179940  36.0706209  33.0606262  64.6819717  19.5677557  21.9072483
  72.0050005  64.3603281  57.5631636  73.5126987  24.2695773  66.7063189
  58.2789256   7.4587924  65.7183085  24.0123179  30.3546353  45.4348846
  43.3292743  62.5809088  53.2693435  76.9489378  66.2224734  51.9705580
  63.7039030  24.3744653   8.6803538  24.6947325  -1.7066167  26.4315948
  33.0183090  78.4407657  39.2349062   6.8836011  28.1428408  17.4138691
  75.7020896  13.6578984  47.4073375  38.8345978  80.8660436  46.1323455
  56.7336987  45.4999859  76.8654011  30.8782535  42.9701228   2.6410708
  48.9113828  39.0968203  78.6426305  47.9330531  39.0463100  78.5351866
  49.0919327  39.8365054  78.0571087  55.4288211  29.4205431  59.1344012
  54.9930685  30.2969737  59.1516151  56.3682862  29.7613404  59.1060984
  56.3815026  23.5242363  57.4153307  57.0172992  23.3871657  56.7087190
  55.7188931  24.1285458  56.9424717  40.9941811  27.1670435  62.9123166
  40.7411063  26.2315966  62.7877492  40.8350450  27.4750787  61.9944849
  60.1762729  20.8011499  63.4037486  61.0112461  21.2498151  63.5007976
  60.2651235  19.9650801  63.8824717  46.8748324  35.9337595  67.8151941
  46.5955657  35.0545814  68.1067051  47.4967601  36.2061421  68.5397944
  47.3936472   6.1667995  67.5121945  46.4626743   6.3203222  67.3526408
  47.3354534   5.1474783  67.6958039  45.0319237  26.1539754  63.0229935
  44.3484725  25.7429967  62.4675306  45.3459873  25.3654308  63.5104161
  53.9096045  31.5045877  58.3821393  54.4849070  32.1420186  58.7696856
  53.6434449  31.8719024  57.5101398  45.7951335  35.8866481  71.0449747
  44.8410772  35.8221164  70.8608737  45.9318018  34.9665060  71.4372812
  59.7846329  40.3829814  74.6220794  60.6712696  40.7158781  74.6561449
  59.7294729  40.2281744  73.6348901  41.8795235  29.5154693  65.9977181
  42.4722097  29.1995910  65.2832868  42.4668193  30.1923632  66.4134738
  45.1258386  32.9094027  84.7059820  44.7827363  33.0946901  83.8216527
  44.3473691  32.3788209  85.0417911  35.5235905  36.4399440  73.1799742
  35.8281030  35.8253901  73.8202880  36.3039235  36.8653423  72.8313516
  40.4107072  48.1900932  75.5073578  39.5314787  48.4819155  75.0894712
  40.0862954  48.0773485  76.4315043  41.1051785  44.1626777  70.1555071
  40.8661211  43.3944791  70.6658734  41.9451344  43.8124667  69.7799330
  31.0788185  17.5579048  13.1245523  31.4307992  16.6840795  12.8011683
  31.9590293  17.9088099  13.4552989  41.9816050  52.8112846  76.7404410
  41.2713218  52.2994092  77.1626686  41.5130587  53.1407166  75.9101296
  32.4897640  52.1209426  71.8232510  32.5862047  51.1887776  72.1648969
  32.0440208  52.5134948  72.6331134  48.3068469  38.1574236  64.9207576
  48.3682096  37.6650612  64.0716826  48.9343847  37.5567117  65.4808574
  48.8543637  50.4128189  63.6020810  49.6356500  50.8911129  63.2340573
  49.1548721  50.2171162  64.5111579  40.8082526  47.3953499  63.3879040
  40.2137410  46.9840279  64.0300104  40.1969303  47.4308320  62.6138619
  46.0864034  48.0675408  65.1649805  45.1960882  47.6592116  65.1156204
  46.4988188  47.7986613  64.3580912  53.4158410  50.8874431  58.8668101
  52.7778214  50.2304636  58.4645624  54.1936544  50.3760361  59.0651410
  58.2273668  36.8554566  61.9758499  57.6140248  37.0444260  62.7407219
  59.0771244  36.7930382  62.5123535  60.5213943  36.9512336  63.5318761
  61.3017731  36.9520146  64.0959483  59.9545759  37.4577892  64.1874989
  61.8089266  45.2346961  54.8307836  62.2695025  44.8414892  55.6821478
  61.1847394  44.4518227  54.6989533  58.9533922  44.7073162  67.2138145
  59.5483447  44.6308389  68.0169794  58.0791604  44.7198745  67.6004962
  58.4566558  52.3304310  49.0089726  58.7796025  52.3261055  49.9004518
  59.1412756  51.7605101  48.5728615  58.1274700  30.3580630  59.7203087
  59.0390970  30.3974688  59.4021995  57.9763639  31.2976825  59.9135781
  56.8101436  33.0521087  52.1951039  57.0429064  33.3073098  51.2914211
  55.9754235  33.6105857  52.2197966  61.0562185  30.8507192  59.2540813
  61.2680352  31.2818621  60.0821223  61.4550757  29.9853883  59.3038250
  58.4696682  28.0991596  70.7319638  58.8560438  28.8446538  71.2538638
  57.5225765  28.1896947  70.9297761  60.0937231  29.2056387  67.2199813
  59.9166196  29.6937840  66.4005458  61.0621975  29.0023360  67.1646249
  41.0945377  34.7084541  69.0239020  40.3455653  34.6266485  69.6256892
  40.6496392  34.7183442  68.1585513  41.6989818  29.3921682  79.3563850
  41.6693895  28.3804393  79.2573832  40.6896656  29.4402545  79.6074299
  30.2988574  41.8919837  75.0451762  31.0623268  42.1247735  74.4775695
  29.7292364  41.4522570  74.3735212  35.6953097  55.6105997  67.7954405
  34.9939439  55.6437795  67.0903790  35.7049227  56.5460942  68.0571735
  27.5409606  41.9774279  70.2455487  26.8610417  41.9699321  69.4823792
  28.0156931  41.1402738  70.0498145  21.9558595  48.0343035  63.1085715
  22.1876169  48.9161768  63.4121603  22.2519301  47.3980378  63.7245022
  15.7330633  47.9061111  61.3200137  15.0184764  47.6600854  61.9759044
  15.3831184  48.7979179  60.9976595  36.0807609  39.0246782  43.3439482
  36.7529517  38.3166010  43.4942475  36.4019095  39.3359363  42.4648173
  40.6988079  39.4005119  71.5769401  40.7922216  40.3629981  71.7815593
  39.6916197  39.3606365  71.5555794  38.8185558  23.6713979  50.8411713
  39.1533063  24.5806083  51.0832252  38.2778660  23.5023110  51.6571676
  34.5303156  46.1166533  76.7383159  33.9734664  45.4417554  77.2007333
  34.9931944  45.5443999  76.0744991  66.4787548  39.1231582  61.2385019
  65.6494936  38.9077026  60.7376611  67.0862612  39.1747903  60.4972299
  61.2928983  44.6564089  65.6018657  60.4299702  44.3620428  65.9331697
  61.1575215  45.6515535  65.5496929  46.9808849  24.4093279  61.2105087
  46.6133123  25.2157232  60.6928996  47.6398734  24.8399376  61.7567852
  54.4964194  44.9377688  59.8149091  54.9731372  45.8089606  59.9210465
  55.0808347  44.4258388  60.4223786  33.6817820  26.9404517  58.3251714
  34.4974397  26.9053264  58.8163021  33.0408246  27.1109488  59.0196499
  24.8765939  26.6470649  48.5971035  24.7452311  25.7236832  48.6588147
  25.5312705  26.8026998  49.2817583  18.9005046  30.1294880  47.6135554
  19.5582419  29.4460614  47.3473566  18.0922308  29.6127644  47.6589934
  21.6081120  33.8501939  53.2863887  22.2083241  33.4296405  52.6284515
  20.7672091  33.3886403  52.9804251  26.3539603  27.7727428  50.5367458
  27.0948912  28.3370375  50.2603214  25.6145460  28.3790489  50.2432634
  35.0542495  20.5426180  55.5141401  34.4769681  20.5613435  54.6756002
  35.4042036  21.4793564  55.4254838  27.5261257  27.2719152  57.2987459
  26.8017833  27.6332395  57.8362616  27.9202586  28.1401392  56.9752793
  24.2983589  29.9325622  51.5222855  24.7750257  30.4013992  50.8256794
  23.7603441  29.3439335  50.9403062  18.9883957  25.9714932  52.5861362
  19.6405448  25.6325835  53.1699761  18.5310040  25.1273770  52.2677680
  16.8713352  31.1073202  55.7278902  15.9711509  31.0826760  56.1411425
  17.0956754  30.1516981  55.8710764  23.3966147  36.0158065  59.6682056
  23.5829899  35.3766309  60.4229413  22.4370885  36.0905075  59.7522639
  21.2658065  23.9201003  66.8070963  22.2606396  23.9805290  66.6511307
  21.0432292  24.8261152  66.5609547  17.4526030  27.8847899  62.2477782
  16.4897587  27.7215986  62.4324670  17.4778837  27.5291496  61.3041458
  28.5394966  32.2393476  61.4728831  29.2776934  31.5743022  61.3966456
  28.2868118  32.0519221  62.3935372  24.8765018  38.6202559  53.2766089
  25.6271365  38.5776485  53.9231666  24.1309273  38.3312170  53.8615397
  15.1391976  35.1546005  54.3751874  14.5346704  34.7362025  53.7531187
  15.9779871  34.9530937  54.0065271  64.4296699  35.0606457  49.4936918
  63.6072560  35.5780851  49.4939032  65.0769812  35.6922370  49.1306169
  30.8526959  35.4154815  45.9683898  30.2622757  34.7222734  46.3205624
  31.3158913  34.8800457  45.2396758  59.6808644  25.6084847  60.8269812
  59.0826075  25.9939762  61.5465570  59.2958068  24.7281010  60.7778755
  20.3684208  49.7741163  41.3711613  20.7951651  49.9730422  40.4996887
  21.2094535  49.4589554  41.8241251  16.9586295  56.0843686  49.3211584
  17.8060610  55.9948750  48.8750537  16.7766755  55.1066150  49.4109250
  22.6158265  47.3279603  48.4451645  21.7413696  46.9101058  48.5766340
  23.0007030  46.6235603  47.8360797  22.2980335  41.9573913  45.3056354
  22.1800055  42.0768848  44.3116260  21.9578978  42.8949074  45.5041677
  31.6488834  66.1071510  61.7969017  30.8588492  66.6892368  61.6582735
  31.4425537  65.6275526  62.5485673  25.9976365  70.1685657  46.6852506
  25.9882151  69.8654413  47.6262051  25.2871260  70.8440045  46.7276621
  13.1815740  28.1943214  55.8004988  13.6532578  29.0268452  55.8661263
  12.5437482  28.2933265  56.5806826  21.2197243  48.4140954  53.1684410
  20.7090921  49.0657324  53.7250609  22.0928211  48.4792973  53.5698596
  15.1225035  50.6519702  65.8521680  15.6130954  51.2614439  66.4559270
  15.5926936  49.7929257  66.0880928  42.1158290  61.6339898  15.2995645
  41.4836378  62.2495851  14.8115104  42.6233314  61.3314696  14.5197323
  55.8167563  43.0637174  51.5943132  55.0707521  43.1526228  50.9419636
  55.2393114  42.9150064  52.4360753  22.9913231  43.4371058  61.2019858
  22.8034254  43.7479297  62.1160911  23.7979447  43.9860001  61.0039168
  71.9574884  41.8214359  64.6513014  71.4194094  41.1121725  65.1206673
  71.2614872  42.4495514  64.5471656  60.8826816  43.4028978  61.3774323
  60.5634984  42.5586028  61.7234127  60.2259616  43.5657355  60.6717544
  69.8122653  32.9530163  42.3249844  70.3131919  33.6910753  42.0138553
  69.0996547  33.4078921  42.8813565  60.4330705  49.5781648  43.1152663
  61.2618601  49.7816081  43.5964745  59.8540734  49.2246372  43.8046800
  51.3831639  37.3797219  24.1100080  52.2466834  37.3999637  24.6266037
  51.7161240  36.9368908  23.3027608  25.5970437  64.5855163  55.2168359
  25.0331993  63.7567683  55.1600003  26.0383121  64.6192543  54.3558493
  48.6754658  39.1191483  50.4617881  48.9431575  38.1661049  50.5132755
  47.8963833  39.0704691  49.8501469  48.3403598  36.4869012  48.1144593
  49.0958852  37.1172414  48.4060508  47.5837301  36.8825844  48.6570928
  59.2650065  32.9181667  20.1041562  58.9161568  33.2999470  20.9824660
  59.6901032  32.0980408  20.5168278  57.3606023  19.3911042  14.8633591
  56.8749288  19.2667208  15.7342732  57.1696425  18.5461195  14.4385454
  45.2051574  45.2263667  35.5572392  44.7137591  44.6829426  36.1977327
  44.6048048  45.9743629  35.4985520  60.7895214  16.6662601  53.8642093
  61.0753794  17.6201635  54.0944176  61.6260485  16.4258604  53.3610613
  36.8169859  39.9448092  41.1120003  37.0093320  40.8851933  41.1522300
  36.7698979  39.8914358  40.1168804  32.6901143  27.9184555  21.5487571
  32.3188396  28.0306564  22.4446532  33.0044510  27.0396610  21.5342812
  41.6125472  14.1056746  30.3951233  41.0081302  14.0111676  31.1366312
  41.0906852  14.4807208  29.7416045  22.9288647  48.7047152  55.1520971
  22.4442494  47.9021131  55.1993081  22.8197798  49.1103454  56.0072446
  36.4245647  56.8237227  51.8673941  36.1869916  56.9318026  50.9368348
  36.7654796  55.9424858  51.8799712  48.1316571  57.6810512  56.3422203
  47.5534884  57.3829996  55.5841073  47.6075833  58.4638957  56.6406773
  25.7463624  48.2303668  55.8623986  24.9613163  48.6436303  55.4694401
  25.5413897  47.3088184  55.7475185  53.1481710  14.4132141  43.7226435
  52.6277321  13.7582588  44.1111887  53.4951906  14.9791092  44.4186823
  31.4368725  58.7047459  69.2015621  30.5520894  58.6931261  68.7122046
  32.0362667  58.8605203  68.4317393  25.6364490  52.3162644  66.5662738
  25.8819029  51.6236548  65.9099830  25.9022494  51.8103294  67.3876606
  27.2219094  47.9635808  62.3291288  27.9386017  47.4539853  61.9245367
  27.6222356  48.8636117  62.3848564  57.4208324  45.2012705  51.1481242
  56.7742280  44.5352539  51.4452600  58.2665524  44.8879049  51.4784140
  49.6395639  47.4262541  45.9864378  49.8064225  48.1163005  46.6824919
  49.5867666  46.5797595  46.5212874  56.7431234  47.7429564  51.6698394
  56.8359631  46.9066604  51.1921643  57.5177263  47.8061306  52.1757501
  51.3252028  50.3205083  44.9341182  51.2879040  50.5639934  44.0359452
  52.2646966  50.1204561  45.0848430  27.0654841  64.6949379  29.1917815
  27.5310127  64.7454766  30.0295552  27.8485118  64.4857021  28.5900121
  55.9861022  56.8601513  52.1148055  55.3357314  56.9798234  52.8578664
  56.2935224  55.9511507  52.2858209  65.1529977  44.3850498  38.7010686
  65.4314396  43.7234753  38.0382896  65.4476449  45.2143425  38.2724872
  58.7473441  43.6042630  59.6941629  59.2687366  44.1923140  59.0868706
  58.3686908  42.9679816  59.0290768  54.5943459  45.0503775  45.3585801
  54.6911277  44.2865400  44.7774375  55.4876377  45.1842188  45.6929010
  58.9090286  39.4591665  41.6303538  58.9000591  40.0969826  42.3923831
  57.9594047  39.1759591  41.7626885  53.7068924  45.4300294  53.2724158
  53.1019938  45.0825401  53.9364007  53.6869118  44.6563487  52.6433915
  51.5911129  44.9314184  60.0628346  51.3446405  45.3807715  59.1683246
  52.5350656  44.8199536  59.9315374  57.1610225  36.0779273  49.1984393
  56.8891253  35.2425207  49.7040967  57.3989997  36.6839440  49.8987118
  62.3556346  36.7348322  49.7806868  62.4184397  37.6086432  50.2942735
  61.9629473  36.1843559  50.4472702  67.7099997  35.7177638  46.0490892
  66.8658320  35.9144806  45.5298985  67.7768958  34.7776173  45.9389960
  63.2390827  37.0504474  53.5002025  63.0650730  37.6635124  54.2634103
  63.6595738  37.6302279  52.9024764  61.7479690  31.5728460  61.7176363
  62.1566618  31.6434401  62.6092201  61.0232786  32.2549907  61.8420384
  54.8175744  28.8982016  62.8329906  54.1166049  29.5749700  63.0679999
  54.2123657  28.1045837  62.9423322  70.2594751  33.9546023  52.9281815
  70.4727781  33.5480138  53.7837384  69.3089668  34.1479485  52.9789136
  55.7386771  32.3009342  63.4777572  56.5846309  31.8388206  63.5807295
  55.5645795  32.5963644  64.3805756  73.5375144  32.0417296  45.9926517
  73.3853094  32.7670266  46.5973427  74.5105027  31.9298398  46.0447623
  66.8446710  38.4356156  43.2447353  66.3083078  38.6845119  42.4545238
  66.5131042  37.5468254  43.5249354   2.5135642  29.8963465  43.7002921
   2.7067707  30.7987295  44.0222408   2.7567452  29.3877207  44.4524485
  75.8734203  20.3070432  47.3670140  74.9237116  20.2852362  47.0943111
  75.7991220  21.1088328  47.9515858  68.2498845  30.9725910  47.7724465
  67.9405499  31.8375883  48.1548112  69.0614577  31.3402313  47.2531640
   5.0012225  45.6965511  35.2075953   5.3079779  45.6380971  36.1734886
   5.2854715  46.6371058  35.0314501  48.7505552  43.7425069  36.3682211
  48.6516804  43.5976727  35.4190553  48.2579938  43.0337838  36.7778141
  55.6709275  51.3494952  26.9796226  54.9933165  51.6029464  27.6271548
  56.3739347  52.0071249  27.2725292  61.5102506  44.4349862  27.4328831
  61.9534799  43.8531279  26.7361415  61.1876478  43.6481646  27.9742966
  69.1357361  37.2033969  31.5349100  68.6240772  36.3603745  31.4627357
  69.0993431  37.3918942  32.4998201  66.8190946  29.3151471  34.4090587
  66.6626580  28.3962381  34.4522280  67.0607884  29.5456403  35.3006753
  64.0175041  30.1282049  27.4553125  63.7004298  30.9887875  27.7822419
  63.4045500  29.8563050  26.7584167  71.0128534  35.3021101  20.5723750
  71.3632605  36.2119833  20.5056201  71.4965618  35.0300091  21.4040681
  77.3290461  35.6082430  29.1635528  76.8857650  34.7521973  29.3472131
  78.2404999  35.3050846  29.4006957  56.5029270  31.9959977  22.0493524
  57.2239717  32.6481212  22.2552981  56.0639815  32.4125404  21.2825869
  55.0146794  37.5696467  27.5069781  55.4488875  36.7462849  27.5966751
  54.5946130  37.4472563  26.5860388  59.6933935  37.1416877  20.6491463
  60.1271539  36.5374983  21.2925915  59.4335250  36.3700479  19.9714360
  56.6467439  34.7974243  27.5524111  56.1394478  33.9200435  27.4787505
  57.5385578  34.4813521  27.3281486  49.1039650  35.3848126  24.6343070
  48.3186822  35.9914745  24.7998770  49.8263465  36.0445275  24.5035295
  33.0290595  62.1140342  47.6662281  33.7432762  61.6868160  47.1188297
  33.5689377  62.2951026  48.4803507  57.7921512  29.5665418  21.1381889
  57.4384144  30.4758343  21.2801183  57.0118606  29.0365665  21.4052669
  40.3792113  55.7303981  54.2226350  40.1825994  56.3031840  55.0172192
  41.2774821  55.4509520  54.4510150  58.4911615  21.1070537  22.2592477
  58.4041828  22.0169008  21.8892221  57.9766371  20.5882872  21.5553694
  60.7421517  21.2285070  23.8656042  60.4138124  20.8860389  24.7001872
  59.9071371  21.3252267  23.3285908  46.8569056  50.9570478  43.9594491
  47.3091148  50.2366339  43.4971047  46.4319466  50.4810209  44.6905615
  58.5072831  17.5578158   9.0378251  58.6231219  18.5219819   8.9948390
  59.4181116  17.3463341   9.3399162  61.2697364  25.6938769  14.6876418
  60.3461554  25.5923812  15.0563642  61.2499441  26.7143869  14.7921753
  69.5700632  21.8923258  27.7233313  70.3033795  22.4581968  28.0463792
  69.2713584  22.4457549  26.9719025  62.7819195  23.0316705  23.8727448
  63.4492470  22.3959000  23.6081653  62.0798603  22.4861086  24.1876657
  73.1617227  19.1562720  26.7803807  73.3441982  18.2479794  27.0203328
  72.3075750  19.1263388  26.4079517  54.6028570  13.4400278  38.7711644
  54.6915148  14.1596337  38.0862735  54.3288122  14.0236901  39.5245624
  63.8255874  20.3489457  43.6086764  64.1461435  20.0226162  44.4537456
  63.8677816  21.3374146  43.8351890  59.5998410  21.0005889  47.9238766
  59.2780926  21.8963429  48.1352786  59.1655918  20.8880042  47.0371139
  59.0285417  19.0300751  34.6454640  59.8604659  19.4196891  34.9408704
  58.4198792  19.2570288  35.3859906  57.5402348  19.9859358  36.7601036
  57.9190053  20.1262414  37.6220836  56.5880661  20.2073116  36.9274765
  54.4013450  22.4152977  54.1085553  53.9353703  23.2674790  54.1091960
  54.9439984  22.5181829  53.2660492  58.8722537  16.4063314  38.5150337
  58.7126739  16.0919915  37.6587093  57.9521199  16.5138335  38.8581862
  19.3552580  48.4404511  13.3958070  19.7172684  48.2899921  12.4587375
  19.8908385  49.1914635  13.7060215  45.8618149  35.9009432  33.5220329
  46.3117275  36.3734551  34.2273025  46.7141308  35.6420702  33.0566411
  46.8865960  38.6683183  31.7339074  46.1339182  39.2599975  32.0439355
  46.4455710  38.0369161  31.1657901  24.3020648  52.2834458   7.9185795
  24.2743411  51.6662009   8.6475067  23.3831509  52.6880319   7.9932769
  40.4191480  28.9281996  24.0474783  40.5894421  29.6295865  24.7144264
  40.9737740  28.1752716  24.4351679  44.0690501  27.1401621  20.7851207
  44.9277930  27.3073106  21.2071013  43.8338936  28.0842308  20.4892237
  40.7683743  21.9356291  31.9571945  39.7842819  22.0183681  31.9717103
  41.0373842  22.5529706  31.2939906  21.5823315  43.0055922   6.4739600
  22.0913937  42.1204817   6.4020072  20.7085820  42.6470560   6.3413907
  23.0108698  43.1509519  -0.7386222  22.6950080  42.9358752  -1.6733049
  22.3222901  43.8019839  -0.4867545  23.3959284  40.9389394   3.7625173
  23.4741097  40.8819612   4.7731455  23.3708788  41.9426949   3.7608011
  17.1454581  44.2921865   1.9945708  17.0688537  45.2434846   2.1196355
  17.2416016  44.1497459   1.0262141  46.0709067  19.6962992  24.3750471
  45.6427480  18.8407177  24.1213166  45.5647053  20.3145314  23.8014631
  27.0307072  59.4358484  12.1991303  26.9992290  59.5910505  13.1588930
  27.6779636  60.1131336  11.9407620  40.9536508  64.5993607  21.6510774
  40.9918474  64.3777518  20.6977513  41.1325479  65.5483433  21.7665469
  41.5161257  12.9646126  27.3972005  40.7876660  12.3580789  27.3070406
  40.9627541  13.8060060  27.5077806  48.5181186  10.9674312  28.4817538
  49.0300754  10.8118928  29.2753947  49.1623912  10.9293341  27.7862061
  43.7198985  15.8010449  29.5399376  43.3748389  16.0782747  28.6636121
  43.0937283  15.1468921  29.7837722  42.7821989  17.1943195  32.3104160
  42.0216631  17.7818424  31.9475110  43.2586659  17.1241524  31.4393471
  43.5380845  27.4738142  29.8346210  44.0699969  27.8239711  30.5958154
  44.1819218  26.7017089  29.5763572  44.9139683  27.9509979  32.0425547
  45.5983304  27.6016689  32.7543712  44.4214281  28.5496417  32.6279153
  40.9696974  27.0906693  30.2941439  40.8585998  26.6808234  29.4754271
  41.8866247  27.2866426  30.3896004  33.6508993  32.3613188  29.2645888
  33.3396105  32.9372414  29.9695389  32.8307112  32.2394844  28.7631790
  33.4697208  28.1722180  26.2018187  33.9877396  27.4706061  25.7719927
  34.1924671  28.7885131  26.4983247  38.3056560  22.4348378  42.3820327
  38.3633961  23.1038936  41.6762290  37.3506367  22.2774003  42.4339057
  38.6692171  23.8479990  44.8181018  38.5384505  23.5305013  43.9195004
  37.7562453  23.6661487  45.1633124  36.8678992  31.8726826  27.4869317
  37.4719138  32.2843514  26.8935276  36.7522695  32.5089839  28.1649494
  42.7257688  13.4915471  43.5104222  41.8674375  14.0216900  43.3817811
  43.1222852  13.5398129  42.6043715  46.1135449  24.7576754  45.1297558
  45.4621763  25.3748021  44.8913898  46.2450042  24.9824758  46.0853897
  47.5358653   8.0142487  37.1637315  48.0884946   7.6402112  37.8577978
  46.9980739   7.2024860  36.9401102  44.5852169  35.4704532  42.6385180
  43.6866958  35.1381313  42.8539124  44.4180199  36.0695892  41.9235225
  48.5657955  38.1644517  33.7523490  47.8582233  38.2383284  33.0433120
  47.9809980  37.8316540  34.4841678  43.1170960  33.7470983  44.2939890
  44.0670713  33.8635375  44.5398238  43.1235864  33.1998851  43.5274288
  47.5131053  41.3960965  42.4891654  46.7384911  41.0607254  42.9691046
  47.7395174  40.6137618  41.9084077  51.5782283  28.3828360  46.0106704
  52.4888472  28.7504939  46.1574810  51.0399927  28.9847431  46.5924262
  50.5295067  15.9987451  44.9911345  49.6085622  15.8400837  44.6826282
  50.8977214  15.0818406  44.7776563  58.2916091  23.3536020  47.5696087
  58.0603438  23.3213899  46.5636267  58.8766263  24.1889110  47.4534797
  53.1986472  23.0780668  56.9544792  53.9165107  22.6495945  56.4548444
  52.5472366  23.2721614  56.2759007  62.5613302  43.4074301  38.7250720
  62.3241180  44.3711265  38.7872173  63.5184996  43.5244939  38.6151039
  50.8288827  37.2712411  33.0315807  50.8881534  37.9053154  32.3351921
  49.8849848  37.3646925  33.2183437  54.0514963  37.9631467  17.9671028
  54.4345917  38.7204990  18.4038143  54.7396191  37.2607906  18.1301834
  48.1470094  46.2523733  35.4771449  48.5338056  45.3668118  35.7779887
  47.2431264  46.0780766  35.8407610  52.3636785  66.0210325  37.3840853
  52.0880541  66.2030046  36.4580080  51.4703873  66.1390994  37.8589153
  44.2675904  61.5837304  26.4312446  44.3325230  60.6059664  26.4205997
  43.7802267  61.7811144  25.5876548  44.7031212  64.7165987  25.3401132
  44.7138015  65.4293937  24.6710303  43.7824880  64.4272414  25.2837508
  34.2359572  59.8465101  16.8576195  35.1797726  60.1189199  16.8874977
  34.3497506  58.8804072  16.9732344  40.6155770  56.4269403  19.8787443
  41.0923416  57.1829605  19.5145571  39.8713422  56.8962887  20.3441904
  36.8370946  59.8757183  13.9507212  37.0720875  59.7011467  14.9339739
  36.4946919  59.0036900  13.7533553  28.3809647  71.4766671  29.2712377
  28.2425071  71.5158244  28.2966590  28.0899527  72.4368670  29.4497227
  33.2529656  58.2196627  19.8485216  33.2508986  57.4520285  19.2326359
  32.7308152  57.7819872  20.5871880  33.4817267  53.7341486  20.3344821
  34.0505591  54.2987799  20.9025590  33.4869495  54.2412142  19.4767312
  24.7047749  66.3382084  28.7546191  25.2861507  65.5629030  28.6094878
  24.5515116  66.2611361  29.7044470  37.5374858  58.7153715  25.6640758
  38.4216856  59.2569021  25.5813353  37.9210137  57.8613801  25.3859390
  38.0228789  48.4346047  20.4451633  38.6769017  48.9676569  19.9453134
  37.9637496  48.7703232  21.3238383  57.4261104  38.9325140  20.6712839
  57.1637180  38.4754004  21.5125031  58.3239678  38.5301262  20.5713726
  47.5774071  47.5926613  43.7901230  46.8939494  47.1847330  44.3556015
  48.2947448  47.6819842  44.4220371  47.3304652  41.2631477  36.2252747
  47.4055544  40.2429015  36.2417200  46.3695955  41.3128879  36.1115626
  52.2351804  48.8460058  40.5598235  52.9111401  49.4880789  40.8200983
  51.4270598  49.2033667  41.0652743  46.5886257  42.1366473  39.1931301
  45.8638224  42.7782212  39.3587959  47.3422121  42.6681008  39.5950273
  57.6754718  37.0546008  46.7868677  56.8120399  37.0634607  46.3406819
  57.4199736  36.5932121  47.6481812  54.2628995  26.1207741  47.2216405
  55.1274080  26.2456341  47.6680353  54.0174378  27.0519997  47.0497988
  56.9828551  33.3560230  49.5575907  57.5368625  32.7556303  48.9679555
  56.1270074  33.2672826  49.1968252  68.5553050  24.0439210  57.0853462
  69.3113552  24.6550907  56.8775480  67.9831294  24.2968701  56.3607414
  62.8061108  27.9437833  49.2739431  62.5630185  27.6582777  50.1326100
  62.9806875  28.8751439  49.3488664  56.8084852  24.1706258  49.6602979
  57.3119712  23.8026847  50.3914712  57.1870079  23.6544366  48.9091556
  59.5118712  26.8132282  50.7187950  60.3502633  26.7453912  51.1650088
  59.7421894  26.8044767  49.7562225  73.1205547  20.0357362  46.3665057
  72.8424753  20.3027736  45.4633093  72.8783229  20.7557960  46.9027218
  73.1238848  39.5690229  59.6440589  73.8956972  39.1549761  60.0710962
  72.7473155  40.2136162  60.2728271  68.9509099  26.5212391  47.1453916
  69.4876876  25.8865776  46.6406652  69.4071032  27.3536283  46.9374427
  62.5376087  23.1248875  46.7964234  62.6897106  22.9487714  47.7454282
  61.8444869  23.7918591  46.8108126  56.9112257  26.7827459  48.5997964
  57.7880565  26.7479256  48.1229601  56.9032425  25.8485186  48.9532833
  65.6343796  28.8542831  47.0765413  65.0026649  29.0695380  47.8056385
  64.9673704  28.6636813  46.3661149  64.3771949  25.7117073  35.9508082
  64.7157043  26.0072853  36.7875739  65.0560835  25.2039531  35.5514097
  58.7849659  35.6134654  24.8749466  58.7358461  35.0801407  25.7374344
  59.7283881  35.8360648  24.8658492  52.8358026  45.1244567  24.0058568
  52.8194244  44.5708528  24.8113760  53.0303182  46.0134958  24.4039060
  57.9749282  40.2486715  30.2899310  57.4792260  39.4287489  30.5278563
  58.8354041  40.0595632  30.6500179  57.8174871  42.8346267  31.3388734
  57.6541278  41.9703524  31.5940054  57.5860785  42.8253401  30.3575174
  68.2583330  51.2539808  39.8935628  67.6392777  51.8500928  40.3898841
  68.0475855  50.3905615  40.2955723  61.3377880  59.7772043  30.6683792
  60.6471154  59.1282055  30.9884049  61.7991866  59.9544629  31.5105597
  51.4921988  48.8105199  36.3865507  51.7326517  49.7091644  36.2362000
  52.1375847  48.5243407  37.0897761  50.5126618  50.0976066  42.2090303
  49.5871542  49.7439308  42.2775335  50.3316505  51.0671269  42.2650086
  61.6481309  52.0778677  47.1796176  61.0119256  52.5853125  47.7367450
  60.9903180  51.5332427  46.7145011  52.8512464  53.5143800  41.5150931
  53.7157376  53.9607249  41.2609327  53.0486650  52.6379064  41.0341277
  56.9750449  49.5586030  28.8142972  56.5113384  49.9528674  28.0163127
  57.5306876  50.2488562  29.0687144  52.3181094  55.8561078  34.9188047
  51.7703409  56.0927202  35.7166138  51.9494147  54.9539366  34.7661363
  65.2326884  56.8628258  47.7148995  65.3635809  57.5701685  47.1182344
  64.6356132  56.2536855  47.2217043  51.4324649  53.4014727  34.1217759
  50.6105536  52.9033313  33.7682546  51.6232964  52.7296547  34.8277773
  51.2468136  47.6070848  32.2002428  51.7208809  46.8103072  32.5393630
  50.7377380  47.7823602  33.0564350  47.9439408  49.4280987  41.8570907
  47.3622964  49.4882496  41.0762995  47.6152391  48.5413121  42.2219755
  49.6191479  48.5195526  34.3941951  50.0472101  48.7767382  35.2777268
  49.1459688  47.7056765  34.6663616  42.8323477  53.9337588  30.4847004
  43.1328225  54.7018418  29.9000067  43.6910029  53.7479069  30.9056129
  48.2056309  52.3899871  28.5917989  48.2522453  52.8342974  29.5062988
  49.1570741  52.1829000  28.4982283  41.7839007  54.3115781  34.6473579
  42.4261446  53.5431623  34.7048874  42.2639019  54.9864620  35.1539836
  35.0350725  62.5815540  37.2076681  34.4695772  62.5084307  38.0523235
  34.3221746  62.9199150  36.5916651  35.0702356  46.0423505  34.2064467
  35.2493452  45.9082656  35.1682707  35.5688876  46.8800872  34.0979245
  23.6676588  49.7262475  49.2632187  22.8684710  49.9290228  49.7623378
  23.3461097  48.8658449  48.8750079  20.9594737  59.7878492  40.4682787
  21.1240873  60.5901010  39.9957348  20.9606458  59.0982802  39.7210733
  25.2934248  51.2123572  50.9799965  25.0914578  52.0419856  50.5308962
  24.8454383  50.5240905  50.4254906  26.3131865  50.5087685  57.0518390
  26.3200656  49.6302924  56.6446493  25.7699413  50.3584311  57.8626364
  25.3349839  64.3557468  50.6543042  25.6740274  63.5859264  50.0013577
  24.4141416  63.9711726  50.7353230  30.3267207  64.8351020  44.3874106
  30.7508471  64.4025980  43.6704488  30.6421781  64.3838831  45.1423138
  29.7123265  62.7761902  49.2273213  30.6396192  63.1173924  49.3230917
  29.9803552  61.7891205  49.0697630  37.6053509  59.5980350  45.9754859
  36.7974154  60.1337538  45.6115241  38.1097488  60.3826417  46.3069960
  43.4344390  56.3609517  58.6374831  43.6310838  57.2823888  58.9220501
  43.4143678  56.5099804  57.6660665  50.0416934  52.8650076  42.6748301
  51.0039371  53.1692359  42.6364501  49.7430596  53.4197192  43.4126195
  39.2046370  52.3242008  47.0336353  40.0451674  51.8111225  46.8343412
  38.5993302  51.7025967  46.4806802  45.6057907  49.0784813  45.2946097
  44.7585263  49.4415656  45.6016287  45.2618916  48.2147836  44.9136632
  41.8612803  57.8101213  42.8280674  40.9231930  57.9545793  43.0742677
  42.1449791  57.0988380  43.4455099  38.4506512  61.8455718  42.4759172
  38.5227794  62.8210671  42.6846573  37.6438068  61.6598341  43.0103451
  44.3221908  64.7065461  42.1932479  43.6179680  65.1519774  41.6296713
  43.9973767  64.8656302  43.0629246  40.6956085  57.3896789  30.8313459
  41.2413652  56.8274086  31.4092254  41.1999258  58.2266063  30.7991066
  52.5388412  61.1309131  39.2914966  51.5563859  61.1548532  39.3372260
  52.6900199  61.2039406  38.3606684  34.1063883  59.6337690  40.1366697
  33.2140524  59.3587578  40.4363521  33.9325676  60.4701838  39.7367139
  32.8239337  63.6808325  31.6245867  32.1246896  63.5151174  30.9661690
  32.2288089  63.8496998  32.3983896  20.8874544  59.2223766  30.8002944
  20.1256765  59.4287038  30.2081203  21.5953504  59.0261809  30.1752413
   6.8661708  55.6731997  31.1764767   6.4594567  56.4242754  31.6844515
   7.5564024  56.1812813  30.6919178  26.8223120  63.8317425  37.2180965
  27.6137341  63.2566451  37.1829222  27.2203206  64.7411786  36.9660984
  17.2461898  54.3645127  31.6514374  17.3569358  55.3324901  31.7574558
  16.2981118  54.3049576  31.6713697  17.7670571  49.9201520  42.1075451
  18.7274532  49.7289020  41.9784995  17.4336123  49.8276407  41.1781248
  14.7243689  47.3628291  36.2573358  15.0141771  48.1256866  36.7485252
  14.3692852  46.7793429  36.9653415  17.3909847  44.7230520  35.6656622
  17.6773403  45.5288676  35.1841921  18.3102581  44.3322838  35.8932436
  19.0828639  33.9761802  35.1904347  18.5508877  33.1409662  35.0940544
  18.3960987  34.6182163  34.8935397  30.2380108  39.4483733  25.8320118
  30.7083655  39.3124650  26.7033642  30.9471201  39.3686079  25.2050490
  31.2093223  37.7634054  33.4360179  31.7123248  36.9312846  33.5264218
  30.3374861  37.4266349  33.2415248  24.7797351  34.3256746  38.5178585
  25.3109738  34.8972757  37.8813030  24.2378963  33.8270771  37.8306728
  33.2243043  37.9354970  31.4796712  32.7402968  38.1690461  32.3151997
  34.0732576  37.6134875  31.8661072  33.4312027  41.8819334  31.7868028
  32.4852520  41.8590947  32.1096085  33.4516675  41.1842551  31.1746390
  27.1804508  56.6753104  26.3402723  26.4958515  56.0358246  26.6987105
  26.6175357  57.4764147  26.2712692  37.5282473  62.1677710  33.5459235
  36.5941891  62.2305189  33.8638010  37.3349853  62.4367878  32.5916144
  17.6239276  51.7994034  31.7796257  17.3863132  52.7624441  31.6935150
  17.9792036  51.6793356  30.8548373  27.2609643  67.9332602  26.5626302
  26.9802737  66.9793436  26.4115014  26.3442182  68.3479170  26.5362529
  24.4030740  60.6107952  27.2324272  24.7240578  60.8408468  28.1251770
  24.5166760  61.5211248  26.8535426  19.0342521  59.9756005  23.6309066
  18.2652009  59.5045670  24.0188057  19.7579289  59.3516742  23.9298545
  18.2160919  55.2170018  23.7136177  17.3818253  55.5472007  24.1590364
  17.8181125  54.4521216  23.2598090  15.4838317  45.5513829  29.9027477
  15.8687528  46.0342691  30.6454092  15.2472746  44.6832473  30.3227715
  13.9964331  38.9573624  30.7564418  13.1046302  39.2029629  30.3529045
  13.6448664  38.3796545  31.4242257  16.5652715  47.0311258  34.3204710
  16.8846299  47.8429374  34.7129548  15.6715062  46.9739668  34.7052019
  20.8558843  47.1951740  26.1987140  20.0121669  47.2352841  26.6735706
  20.5378176  46.8844716  25.3487338  19.9406119  52.0611522  18.2905477
  20.0577622  51.8700981  17.3450846  18.9857688  51.8352561  18.3957641
  16.4236063  51.8079645  24.7487766  16.5737607  52.5153644  24.0443826
  16.7308297  51.0449330  24.2282023  16.9179294  44.5420244  19.0408500
  16.4718920  45.2449552  19.5840448  16.7434544  43.7436220  19.5964059
  16.8233603  51.2463752  15.1744449  17.7311196  50.9498408  15.4278257
  16.4469958  50.3517147  15.0952927  18.9057818  50.9428171  21.6916579
  18.1094520  50.4201595  21.9279847  18.5070243  51.6592670  21.1954707
  27.2463697  51.7102805   7.1968218  26.3346153  51.4486111   7.0535887
  27.2253650  52.3815667   7.9090758  24.6377433  61.1350126  20.2127814
  25.4587088  61.6506042  20.3664952  24.6101843  60.6779867  21.0716923
  26.8053398  66.3232453  19.4922630  27.1819694  67.0105622  20.0388720
  25.9101402  66.2864415  19.8464794  26.6747751  56.6867782  14.5289219
  26.8353016  57.6317095  14.3411241  27.3011688  56.5196067  15.2374944
  29.1561597  56.1713317   9.3780237  28.5507433  56.8173454   9.7449932
  28.9979257  56.2255002   8.4343932  31.6105497  58.1394442  17.5762872
  32.5133515  57.8617304  17.2596877  31.2748834  57.2126896  17.7802302
  31.1278019  49.3717036   7.1142435  31.7103967  48.7027757   6.7878240
  30.3663289  48.8433405   7.3814478  21.5241986  56.1064915  11.2965883
  21.7241048  55.1180631  11.2518720  20.5881639  56.0308822  11.0504049
  34.9619462  57.2326369  14.7955110  35.3771361  56.3773516  14.8269444
  34.8138251  57.3193148  15.7937661  32.5474707  31.3216801  15.4852790
  31.8374388  31.3075123  14.7979339  33.3341885  31.5218181  14.9354792
  28.3061105  30.5004854   9.3144153  28.1425240  31.2568492   9.9268745
  29.1102522  30.7972341   8.8639715  41.4890331  28.9612665  18.1296456
  41.1528832  28.0717986  18.0461205  40.7134170  29.4581673  18.4990784
  41.2894668  42.2054899  18.2853681  41.3957682  42.8603803  17.6006016
  40.4815560  41.7580227  18.0244034  24.1745170  48.6998998   3.1898591
  24.8396791  48.8130538   2.4675310  23.5376848  48.1015494   2.7173229
  26.9384482  39.7876240   4.2922774  26.5130730  39.0297950   3.8535734
  26.1941477  39.9890253   4.9559809  25.3156172  36.0521036   7.0140007
  25.6577223  35.6541184   7.7727930  25.4547498  37.0173981   7.1654472
  26.3166380  33.2580381  15.9102049  25.7247940  32.8732077  16.6120637
  26.9803704  32.4848675  15.8191858  25.0907684  29.7529893   5.5192514
  25.5975653  30.0233395   6.3449910  24.8973505  30.6048116   5.1393548
  12.4196637  52.6347953   6.2435908  12.6504765  53.1208659   5.3969350
  13.2917327  52.6153442   6.6661050  24.9189418  34.3044605  13.6822613
  25.3660700  34.0493627  14.5449939  24.0206534  34.0073608  13.7836305
   6.1895051  41.3923107  26.5182292   5.2330519  41.4973191  26.7108491
   6.5294683  42.3149790  26.5616093  30.2106608  57.7043152  78.9126102
  30.2464495  56.8583416  79.4222005  29.6429239  57.4928718  78.1719860
  65.2132683  14.3236375  65.2309331  65.3757915  13.3787774  64.8309244
  66.0917917  14.4560212  65.5861600  20.8689146  50.4267683   4.1941338
  21.1510936  50.4551799   3.2595439  21.1058540  51.2471513   4.5464614
  19.9869236  48.4020931  10.8438419  20.2203856  48.3648695   9.8345004
  18.9828078  48.4647210  10.7380429  29.5861769  40.8848620   3.1393280
  29.3114040  40.6475935   2.2058737  28.8955812  40.3896882   3.6126491
  24.3273957  47.9346886  10.1915213  23.6982955  47.3771360   9.6595060
  24.7125107  47.2592888  10.7587811  10.9550285  55.0648572  11.4218317
  11.9034787  54.8373290  11.1439171  10.9711355  56.0137745  11.2052336
  23.2861602  45.1749411   6.8228867  23.3201142  45.6161434   5.9473701
  22.8176173  44.3381665   6.5659878  31.9480457  56.1834986  21.3542443
  31.5624394  55.3412121  21.1191734  32.8250274  55.9531127  21.6764717
  30.7810544  55.4559143  17.7072312  30.4092275  55.0000518  18.4829299
  31.7574789  55.4189457  17.8493551  31.9537734  47.0629816  21.8731613
  31.5296186  47.2372531  22.7366237  31.2424350  47.3953967  21.2550524
  29.3441258  60.9841534  23.5174100  29.4282144  61.5813586  24.3285005
  28.6727488  60.3481063  23.8663499  39.8137878  32.2038994  22.3506136
  39.3524240  32.9243856  22.8379901  40.1127532  31.6542452  23.0936622
  31.7313971  36.9170398  28.9700419  31.7124125  37.8331257  28.5340777
  32.3624304  37.1057750  29.6889126  25.4630379  31.8370487  18.5809501
  24.7456933  32.3463167  19.0361540  25.0260266  30.9753606  18.5166995
  39.3769847  26.7899688  13.3142047  39.9752950  26.6806853  12.4943615
  38.6436504  27.3062652  12.8919586  31.0495027  27.3824630  32.7488970
  31.9064770  27.3226397  33.2303645  30.4721223  27.1239337  33.5274619
  31.8170330  39.5420533  28.0127540  31.1871118  40.0490843  28.5459520
  32.6993257  39.9455931  28.3780823  23.6625593  34.8683734  18.0167369
  24.0550036  35.6487254  18.3858654  23.7071659  34.2013244  18.7203953
  17.0965217  45.2297545  16.5429322  16.1257491  45.0180079  16.4305355
  17.1468613  44.9249168  17.5061454  54.8380233  25.2450615  56.3133036
  54.7463686  25.9660349  55.6630112  54.3505933  25.6068605  57.0916328
  55.9523943  33.5441619  58.7856900  56.4068606  34.4145727  58.8557936
  56.2147057  33.1558166  57.9429203  45.0494112  35.1528699  50.5703166
  45.6351473  35.8164155  50.1453383  44.2082609  35.4700514  50.9301741
  46.2871285  36.8380572  52.4007575  45.4076318  37.2865292  52.4548369
  46.7565866  36.9797323  51.5682310  46.6276411  32.4019353  52.0029961
  47.4351162  32.0430239  52.4268840  46.5015528  31.8559245  51.1721914
  48.4243398  25.3242953  75.5467880  47.5380556  25.7540771  75.7213619
  48.5429098  25.5393681  74.5952371  44.8560853  40.4554364  32.2116414
  44.0247172  40.4807244  32.7744994  45.1051387  41.4244264  32.3107760
  41.8258133  33.7695553  25.8785968  41.1200639  34.4052566  25.6331962
  42.0280029  34.1611717  26.7852463  38.6834831  46.1572670  34.4468830
  38.2122350  45.3513149  34.2408800  38.1038956  46.9083264  34.2205932
  37.7375442  40.1271450  23.7854066  38.5157354  40.0840604  24.3894951
  37.0237585  40.2411451  24.4076369  48.1966554  43.5072199  41.0143125
  47.8837370  42.6581783  41.4929585  48.4791655  44.0229048  41.8292402
  35.7347626  37.1328528  32.8312854  36.1053288  37.8740555  33.4027047
  35.3837909  36.5680744  33.5988553  35.7978881  44.2036688  36.7571610
  35.4619194  43.3229290  36.5617155  36.2109463  44.1036429  37.6411031
  41.8663982  37.0571053  25.7427568  42.2353410  36.8651855  26.6530293
  41.0382891  36.5064800  25.8527371  27.6179263  38.7349322  26.4791093
  28.4972088  38.9483038  26.2024692  27.3014575  39.4260108  27.0338105
  33.8698770  40.1945385  29.5221167  34.7031592  40.4663931  29.9688402
  33.6884988  39.3397726  29.8707899  30.9095428  42.0935266  32.8750068
  30.6919692  42.9602384  32.4055323  29.9923697  41.8168623  33.0689729
  35.1707347  36.0798963  35.0846507  34.8833743  36.8569676  35.5661189
  35.1999676  35.3557466  35.7690334  29.7076345  39.3557173  41.2492609
  29.5274232  40.2366815  41.6382960  30.6192524  39.2293188  41.4056988
  35.3370690  34.1932427  37.0346131  34.6545049  33.4952062  37.0244458
  35.8548266  33.8189838  37.7850060  32.0618757  28.9335856  36.7589335
  31.5902024  28.1869646  37.0651699  31.5139755  29.7106165  36.8990775
  21.1816527  33.6664208  45.0275652  20.4511285  33.0584087  45.0164136
  21.3021997  33.7642150  46.0239832  43.4912384  44.2052803  37.4612536
  42.7425925  44.7060739  37.8740171  42.9292995  43.6292795  36.8670785
  53.5185450  33.6775851  84.0180409  53.6619888  34.5056199  83.5241244
  52.7972392  33.2967702  83.4321539  52.0226963  23.9548992  74.7617653
  51.2447676  23.4999461  75.1086826  52.5734604  23.2332437  74.3864931
  44.4199948  22.5853110  74.7485268  43.6904401  22.2426843  74.2585405
  44.6467789  21.6366865  75.1958302  42.7393431  33.9079857  74.6369308
  41.8993587  33.4879358  74.5573965  43.3223533  33.2713707  74.1771484
  69.8207973  55.7836973  18.7994159  68.9108244  55.9420319  18.5249238
  69.7908841  55.7513525  19.7649285  49.0342449  22.2006356  64.9774511
  48.7327881  21.4675973  64.3779593  49.8128221  21.6760873  65.4107774
  69.1375982  62.8475354  19.4212137  69.1419492  63.5929044  18.8108711
  69.9321736  62.3561925  19.1841341  49.2402686  18.1722715  76.9608862
  48.3162663  18.4245154  77.1719950  49.6697310  18.5158971  77.7703740
  21.1159854   3.3972617  20.3592401  22.0690544   3.1728805  20.1460463
  21.2077999   4.3612788  20.4253316  41.1354464  38.2119249  85.4107412
  40.3935473  38.4635287  84.7826643  41.4877028  37.4517117  84.8495385
  54.6807284  36.9024353  74.7392168  54.0949033  37.3335897  75.3591551
  54.4755817  35.9576810  74.8120561  74.8914600  59.4306181  20.1889964
  74.9841200  60.1697963  19.6002945  75.4412542  58.7430593  19.7144639
  49.9641679  22.2925039  79.9752728  49.2454037  22.6068880  80.5760460
  49.7504831  22.9145822  79.2273158  46.7126814  27.4837404  78.0219548
  45.8523575  27.9472654  78.1109175  47.2528576  28.1019065  77.5446781
  55.7249884  29.4951515  75.6442056  55.0151506  29.9210991  76.2338294
  56.4208796  30.2372489  75.8228924  72.6600695  60.0721576  23.6378276
  72.3549282  60.7761593  23.0068491  73.1083084  60.5993786  24.3458641
  50.3755703  36.8513528  78.3060991  49.9325871  36.3543439  79.0393237
  50.0253400  37.7354015  78.3925672  50.4458202  35.7765578  75.7648174
  49.5802968  35.4472483  76.0003530  50.8045555  36.2029441  76.4967457
  42.7794705  27.0235102  82.1131769  43.5916672  26.6090001  81.6976022
  42.1953196  26.2474436  82.1657001   3.0066500  68.0868369  23.9127168
   2.5167447  67.9681215  23.1212371   2.6637057  68.9849611  24.2095880
  57.5865227  49.0779113  74.1302399  58.0771946  49.9651808  74.2223673
  58.0022497  48.7735413  73.3178772  53.0055251  27.3670452  73.5748327
  52.8371170  28.3350534  73.5930951  52.3628293  27.1190655  74.3457851
  23.7532977   2.8856765  19.8118648  24.4206980   3.1126325  20.4390126
  23.9793839   3.4310128  19.0348186  40.9163195  42.8437930  80.2740641
  41.4884131  43.6252491  79.9589050  41.4201214  42.5978315  81.0471016
  34.8081006  32.2970802  77.1018692  35.7720133  32.2767753  77.0958023
  34.5892980  31.4430619  77.5185897  25.2723862   4.7678456  21.4208950
  24.4288023   5.3909746  21.2983438  25.8241685   5.2518388  20.8281689
  45.4533553  30.6699734  80.7414609  44.7272646  30.5136245  81.3774006
  44.9994812  31.2354888  80.0701416  58.2243510  29.5646655  80.6799870
  57.5836697  30.1286608  81.1092768  58.4032871  28.8907647  81.4037023
  54.0683002  31.0287965  77.2032160  53.2024262  30.5782119  77.2433000
  53.8006907  31.9634741  76.9685471  51.5348438  28.2647917  83.0926873
  51.0781271  27.6250003  83.6190664  51.3998108  29.0992279  83.5781604
  52.0309716  30.6599550  71.3789651  52.6561591  30.5931012  72.1173153
  52.2270476  31.5956574  71.0756941  57.7125692  45.8618180  65.0640944
  58.3612408  45.6826286  65.7882192  58.1758562  45.3202041  64.3149815
  47.2775837  27.1973741  81.3938173  46.3846024  27.5485158  81.1606401
  47.4662651  26.5889478  80.6737323  33.6634236   8.0964376  21.2977884
  33.3985956   8.4307740  22.1931722  32.8630328   7.5759662  21.1091967
  49.3728604  39.1613811  70.0920017  48.6533721  39.8096706  69.9068762
  48.7845517  38.3707603  70.3243618  48.8339278  41.8293607  74.2708323
  48.5135053  40.9687181  74.0429600  48.8505565  41.8046238  75.2921285
   3.2324954  44.6143947   8.2754432   4.2404187  44.4637981   8.0821413
   3.3302296  45.6193104   8.1044751  75.7278620  37.8335485  10.0345477
  76.1887532  38.0166949  10.9093650  76.0844803  36.9317310   9.8838173
  47.0996675  11.1474154  66.9522523  46.9179792  10.4368770  67.6330547
  48.0443031  10.9084505  66.7106811  50.1895764   6.1051989  72.8318339
  49.4144280   5.5235287  72.9371032  49.8777039   6.8829594  73.3954229
  34.5421103  17.4377940  65.9066290  34.3296200  16.5541561  65.5502285
  34.2787269  17.9857164  65.0653282  48.5876658   7.3227526  63.4488557
  48.3034138   7.1331419  62.5452119  49.2268720   6.6003798  63.5406252
  49.7137350  10.4220262  66.2840526  50.6911950  10.4593783  66.3893955
  49.5414172   9.4830543  66.4292692  53.4344599  23.7309311  59.9754727
  54.3864274  23.6167869  60.0032311  53.3089883  24.5026247  60.5131223
  64.4878440  38.3311122  12.7316792  65.4522539  38.2716545  12.5022517
  64.5634856  38.6735209  13.6387538  43.6449543   4.2397856  61.5540392
  43.0813589   4.9934865  61.6852787  43.4832377   3.6862288  62.3536755
  49.0722074  12.2682766  69.1840542  48.7417211  11.4376050  69.6146403
  49.9736767  11.9698511  68.8980041  44.1340708  13.5087372  68.8203610
  43.7096605  14.3211136  68.3832719  44.9236586  13.4934347  68.1774265
  26.1622806  75.4162378  58.4100656  26.5455491  74.9508525  59.1793496
  26.8501637  76.1170117  58.2613808  45.8325703  20.1310263  62.7410793
  45.4102942  20.3916465  63.5742428  45.2991871  20.6430506  62.0755386
  41.9982100  17.9916365  60.6752132  42.9441837  18.0359735  60.6592366
  41.7443484  17.8404732  59.7299050  55.1734853  27.1231990  66.6431984
  54.7241188  27.4029684  67.5094169  55.7531519  27.9297245  66.5912075
  47.7868901   1.2850612  60.9727587  48.6404081   1.6734111  60.6488182
  47.2075387   2.0654830  61.0736665  47.3169385  17.6060412  59.6689432
  46.3426996  17.6781596  59.9117057  47.1519481  16.9175450  58.9690597
  44.1315159   5.3257456  64.7151326  44.2457209   5.7640279  65.5845793
  44.8347041   4.6261746  64.7763392  48.8887772   7.9593287  66.2306817
  48.4642143   7.2044899  66.6499525  48.6687466   7.8302979  65.3122394
  57.5449046  17.3937716  67.5149921  57.6826055  18.1872463  66.9194289
  57.0215459  16.8475109  66.9295821  48.1987922  28.2245529  71.5590696
  47.6798492  29.0203478  71.4833439  48.3994601  28.0116682  70.6304322
  54.8955652  26.2320898  64.0982933  54.1231081  25.7185153  64.0948211
  55.0266826  26.4776812  65.0208846  52.6398627  15.0390501  66.7583995
  53.4621608  14.8833111  67.2825717  51.9634647  14.7524767  67.4485262
  51.7081178  11.7216369  69.0095101  51.9818221  10.8531447  69.4170464
  52.1723317  11.5275773  68.1053693  61.6634410  13.6077932  63.9552170
  61.4275330  12.6411974  63.9349447  61.4382302  13.8319994  64.8703066
  51.5082772  29.9198915  74.5997088  50.5775516  29.6293703  74.4733118
  51.3455772  30.8494285  74.2685504  46.0406115  12.9993433  63.3532427
  46.5014194  12.2474538  62.9606614  45.5091314  12.4027977  63.9958705
  43.1781677  20.3263283  78.3040524  42.2764609  19.9050633  78.1907101
  42.9765020  21.2071020  77.9811139  67.7504889  12.3593838  58.3582957
  68.1650357  13.1588324  57.9856594  67.1699542  12.7887888  59.0356724
   7.7980730  56.6778121  18.1321064   7.6182899  55.9534532  17.4946500
   7.2138666  56.3702292  18.8932249  60.4595388  24.2675335  68.6021106
  60.0581043  25.1609568  68.7249568  59.7217672  23.6851124  68.3549873
  42.6828111  20.8965526  73.3967235  41.9481594  21.0769658  74.0550993
  42.1382673  20.4566446  72.7293261  57.8132186  42.0086363  75.8017653
  57.9687129  42.9344933  75.6583682  58.5907662  41.5881105  75.3148656
  56.4803346  22.2372421  61.6025518  56.1199986  22.9170622  61.0105435
  55.7039220  21.6361251  61.7121324  49.8673310  23.1305564  76.4834906
  50.2854366  23.6647045  77.1999887  49.0589800  23.7308041  76.3238456
  55.6441774  17.3947439  71.6756148  55.1543613  16.6029212  72.0763125
  54.9414149  17.9060099  71.3170459  43.2179383  18.1920502  66.5462945
  43.7483905  18.1115939  65.7520965  43.4985854  18.9996212  66.9388943
  68.2920833  53.2148954  19.2146856  67.9475062  52.9759599  20.1265328
  67.6714317  53.9824633  19.0619559  16.2344618  60.7471318  10.5165711
  15.4792044  61.1884911  10.1765872  16.0891204  60.8583831  11.4967532
  47.0215817  16.5160602  66.6926460  46.6508574  15.6153703  66.7318114
  46.6372393  16.8937491  65.9329478  54.0676173  27.7058962  81.9347858
  53.5909018  28.2337993  81.2905112  53.4080792  27.6756088  82.6708979
  49.8745659  32.4271254  86.8642567  49.3631436  32.5880247  86.0502973
  49.0963604  32.3335431  87.4777463  48.3001538  14.4376694  71.5030703
  48.7265837  14.5123283  70.6518820  47.6831194  13.6895667  71.4471159
   8.2613916  50.5518988   7.0779488   8.8373582  51.3059680   7.1017413
   7.6027802  50.8384143   7.7438249  54.7237758   4.4718318  67.1321634
  53.8829053   4.3586215  66.5704505  54.6149043   3.5858421  67.5865504
  63.3828066  24.9061775  63.4735002  63.0003189  24.0231168  63.6829750
  62.6754236  25.4664958  63.9081053  19.7722356  50.9031063   8.5294148
  19.4922849  51.7491538   8.9961168  19.5804174  51.2482694   7.5673406
  58.2998709  15.5860621  74.7505225  57.3677919  15.2534777  74.6314257
  58.3646115  16.1233971  73.8939922  23.8596393  65.5798459  71.4394488
  24.5597122  65.2187653  70.8896676  24.2777630  65.4560494  72.3212964
  56.4982936  16.1022185  65.4692436  56.6950184  16.4495560  64.5619194
  56.0949707  15.2606553  65.2259128   4.1218695  41.8347517   9.6089046
   3.5187000  41.3194164   9.0921201   4.7343439  42.2783742   8.9573221
  16.6403767  53.3514910   4.5619863  16.3930924  54.1719494   4.1602184
  17.5148996  53.2073560   4.1045730  48.7308477  29.6508812  78.5020231
  49.6606382  29.5648119  78.2492860  48.8220764  29.3535914  79.4747643
  52.9564156  32.9986786  62.9822787  53.8614276  32.9712944  62.6603237
  52.9064147  32.0321147  63.3333298  47.8870118  20.5282455  67.5116200
  48.8147279  20.6534776  67.3169100  47.8814126  19.6400906  67.9516547
  56.4692820  29.4880032  67.3689777  57.1722351  30.1775479  67.5176014
  55.6929278  29.7476540  67.8779324  66.0152970  25.2628895  64.5809135
  65.1195556  24.9256796  64.3441491  65.8042362  26.1928836  64.7068676
  48.3344134  34.4906345  76.8447142  47.4705131  34.9685691  76.9743556
  48.0954520  33.6889217  77.3086593  31.1180237  72.1090882  53.2006501
  31.2294799  71.2582402  52.8721012  31.1646922  72.6410283  52.3428229
  48.0338851  32.5191267  69.6656741  48.5019561  33.3919127  69.8613395
  48.7658232  32.0529056  69.2342020  51.7318843  33.8387875  79.3368672
  51.4677310  33.4046851  80.1679817  52.1136088  34.7169982  79.6436081
  53.6511303  26.0230504  61.3499960  52.9471935  26.4967743  61.8455210
  54.2760160  25.7981584  62.0810143  73.4233472  54.4168092  17.2760930
  72.6765685  54.0742995  16.8098622  72.9911104  54.6140261  18.1420109
   0.4299805  52.7011219  21.3099459  -0.4601317  52.8097256  20.8771917
   0.1023522  52.5413388  22.2440432  45.1424033   8.6565032  69.1149733
  45.3995709   8.6175727  70.0565419  44.6678110   9.5543528  69.1479483
   0.6463220  34.7673194  14.0276645   1.6142844  34.9525557  14.0984933
   0.3212905  35.6937504  14.1538785  69.3403161  49.8584507   9.0057548
  70.2172256  49.4168485   9.1032539  68.9315052  49.3776467   8.2994269
  45.7979771  35.8653273  65.1252066  46.2716330  35.0394957  64.8429770
  46.0452794  35.9043752  66.0408850  52.5189315  24.8034183  69.8026100
  51.5898181  24.4764614  70.0287704  52.7909626  24.1468297  69.1479813
  67.8582588  14.8440525  56.9862049  66.9706187  14.5634424  57.1128046
  67.8943037  15.7171428  57.3301522  48.2987853  36.9869579  71.4232488
  47.3511857  36.6510379  71.4457457  48.4727879  36.9152279  72.3819154
  52.8940622  11.5015973  66.5331259  53.4733276  12.1788741  66.0910803
  53.6257316  11.0211119  66.9810292  66.3773266  53.4690793  10.9311547
  66.8507064  52.7441104  10.4268459  65.9549879  53.9496546  10.1941419
   5.3369212  56.9438408  15.4562459   6.1691202  57.2354439  15.0510620
   5.5304256  55.9575921  15.4656303  54.2645722  39.1042575  66.3286460
  54.4997915  38.1402191  66.2023304  55.0465257  39.3950572  66.8385388
   4.7367147  57.8918799  20.2755035   4.5769461  57.6739035  19.3087001
   3.7983671  57.9893203  20.5567639  56.1813900  11.3086122  65.2470201
  56.3723404  10.3172418  65.3147221  56.3955415  11.5387912  66.1933441
  78.7564410  39.2128175  15.4587781  79.5287052  39.4788329  14.8670400
  79.0640726  39.5245510  16.3262283  49.6875429  35.3360625  83.6021515
  48.7838039  35.5516080  84.0344634  50.2216811  35.9926596  84.0667027
  62.2519741  22.5573924  69.6907444  61.4609164  22.0553623  70.0492263
  61.7536280  23.3157156  69.3006064  10.4837872  65.5285713  20.9599516
  11.0975429  65.8565272  21.6050417   9.8023899  65.0409804  21.4735558
  57.6847823  23.3487092  78.1693861  58.5935286  23.4749368  78.5193049
  57.2785379  22.9588818  79.0366837  39.2071352  22.1531854  63.6463882
  39.3014910  21.1762079  63.6378342  38.2627903  22.2583944  63.8381430
  48.0591135  31.0933511  75.2698304  48.2255115  30.3279851  74.7000402
  48.5795194  31.7756261  74.7290737  12.5373458  72.3429442  17.0087374
  11.9383441  71.8250727  17.5878910  12.2199636  72.1465256  16.0936478
  72.7964090  12.7783960  60.1990227  72.9040235  11.9267260  59.7645453
  72.2897282  13.3005519  59.6050734  12.8367525  56.8041768  14.5595280
  12.7535725  56.6057877  15.4886698  13.3082377  57.7105796  14.6589391
  21.6826906  70.2380253  71.8943312  21.0035455  69.6593600  71.4258840
  22.4557531  69.6065597  71.6270826  61.0123955  37.2825764  72.4594105
  61.3941674  37.4186231  73.3374401  60.4781148  38.1310028  72.4069436
  72.3542667  45.6115605  19.4169663  73.2336530  46.0439120  19.3413619
  72.0661930  45.7405819  18.4965849  56.2717502  25.7213962  77.8519910
  56.8403228  25.0453903  78.3504481  56.2257873  25.2573997  76.9677377
  64.4714162  18.4589682  71.4603651  64.3497512  19.2659616  71.9686693
  63.5584862  18.1537054  71.2853727  11.6998467  47.6852704   2.3665504
  10.7765688  47.6139021   2.0572667  12.0395668  46.9654222   1.7842988
  44.4947641  11.2138878  69.9345474  44.2798614  12.0833791  69.4143484
  43.6973584  11.3295626  70.5542444  55.1473778  31.0858184  70.8631767
  56.1140983  31.3416660  71.1013187  54.8011492  31.0828629  71.7473013
  61.6812531  22.7452970  75.2068930  61.6551522  23.0280426  74.2746984
  60.7387457  22.8916567  75.4527875  61.1518613  16.5075153  67.7976138
  61.0107891  17.4077537  68.0758354  62.0522162  16.5841129  67.4191404
  61.1697385  19.0477849  68.2747599  60.4604576  18.9874775  68.9674192
  60.8944550  19.8628655  67.8207294  49.3626246  26.9989420  68.9038426
  50.0356283  26.6705114  68.3068432  48.8921921  27.6928105  68.3795182
  60.7313550  50.3888438   9.2725263  60.3963747  49.4816935   9.4524779
  60.4644992  50.7805047  10.1623094  43.3655209  25.5044704  77.2533599
  42.7147571  25.0843694  76.7054543  44.1936863  25.3755044  76.7070817
  46.2540104  25.7442685  68.9094456  45.9255952  25.6343680  69.7971366
  47.1021077  25.2862847  68.9049003  50.8105053  24.5343870  78.5001389
  51.0480937  25.4675104  78.6205193  51.7101827  24.1744850  78.7373533
  52.7712451  18.7913266  77.1470131  52.5628290  19.7367143  77.0669772
  53.5560530  18.8827181  77.7486856  36.0364486  14.3868583  67.6691003
  35.1330644  14.5820754  67.9903594  36.4445792  14.1078535  68.5143307
  46.6384978  33.4020079  65.1606828  46.4060674  33.5572869  66.0760603
  46.3654477  32.4456593  65.0780617  63.8775985  24.7312032  75.1988915
  63.1423583  24.0726260  75.1471286  63.9443664  25.1359208  74.3661265
  59.3635539  22.6292775  61.6029056  59.5404952  22.0553080  62.3877285
  58.3651532  22.5742715  61.5755835  52.3397392  10.2816336  62.7816099
  51.6795338  10.4795637  62.1122225  52.3476791  11.1454283  63.3092657
  50.1953265  23.7218558  70.1146411  49.4660289  23.7056880  69.4293466
  49.7167565  23.2627715  70.8702746   9.5619217  45.7181435  10.1432210
   9.3489217  45.7004298  11.0988771  10.2666467  46.4150256  10.1519224
  51.9014064   7.5584927  71.2921743  51.2248073   6.9667139  71.6879367
  52.7588805   7.0921803  71.6208784  53.8245748  12.5246938  75.1214637
  53.3383200  13.4094845  75.2505057  54.6312914  12.6746766  75.6206525
  18.6555234  42.4479099   5.4955084  18.1221410  41.7603061   5.0714400
  17.9858380  43.0035903   5.9513670  49.4163016  19.5702862  71.4695570
  49.2302789  19.4860513  72.3939405  48.6951106  19.0108381  71.1257309
  56.8346526  20.7716203  67.7880236  56.9623236  20.0002552  67.1940549
  57.3164516  21.4579224  67.2249127   2.4022751  43.9520212  10.8076738
   2.8072213  43.1430826  10.4612354   2.2032848  44.4264637   9.9825925
   5.4485985  54.3269340  15.0874325   5.5113561  54.0220768  14.1521928
   4.4312708  54.0979809  15.2185444  61.6536482  19.2523222  52.3714956
  61.4310249  19.4674127  51.4257456  62.5669480  19.5557596  52.3591924
  70.1422309  11.7913653  55.5628705  69.1714058  11.7232637  55.3742980
  70.3670717  10.8273721  55.5321116  54.7738588  22.1726463  77.3612424
  55.0356671  21.8914221  76.4248860  55.0806761  21.3952497  77.8832346
  52.9716813  37.0883184  69.8018189  52.4115890  37.5505959  70.5128162
  53.6793326  37.7219630  69.7667742  51.2300867  31.2619512  84.6399566
  50.5636752  30.5553947  84.8982620  51.0765648  31.8626103  85.4366256
  65.8855199  41.6902506  71.9347113  65.2193336  41.6363167  71.1828540
  66.4192912  42.4712303  71.6093480  52.6347054  34.9799237  65.3382825
  53.0308693  34.5533268  66.0437703  52.5533186  34.3621435  64.6145937
  57.2328499  28.3631066  61.6372412  56.3347724  28.6512477  61.9198897
  57.4610838  29.1344444  61.0857332  77.2853886  36.9143547  51.8635572
  76.3813893  36.8160173  52.1330863  77.6125634  37.4901434  52.6583156
  68.2493660  32.9597707  73.6852909  68.0552354  32.7724610  72.7519171
  68.8779894  33.6625402  73.6198921  60.4291427  35.5778067  59.8921050
  60.9888975  35.4913469  59.0855208  60.4341210  34.6731364  60.1919249
   0.0024630  25.6979179  61.1694588   0.0824930  24.8472067  60.7180645
   0.8291952  26.1788871  60.8692494  64.1912093  23.4433089  59.4249015
  64.9407099  22.7805395  59.4280084  63.7246493  23.2745868  60.2442031
  19.8569048  64.8666851   7.0272587  19.5695915  64.1756987   6.3916580
  19.5759201  64.3662818   7.8778920  59.9497098  25.4951196  72.2861954
  59.1322244  25.4738466  71.7311714  59.5524699  25.9440136  73.0870668
  55.8105284  28.1219655  71.0009621  55.1404221  27.7047877  70.3868413
  55.3301770  28.9931398  71.0563775  57.8566565  37.0131899  70.8662418
  57.9667057  37.5473207  71.6539224  57.4098103  36.2231686  71.2270660
  59.5970753  36.4241811  76.9051853  58.9404889  37.2004010  76.9229736
  58.9351540  35.7442295  77.2672843  76.2120779  42.0324578  65.4964032
  76.3753717  41.7443584  64.5738185  76.7313759  41.3160151  65.9352325
  65.9513589  32.4912162  75.1582868  66.3578085  32.1145873  75.9318888
  66.7862138  32.9162015  74.7289321  65.6990729  35.3541994  76.7863542
  65.5829527  35.6604890  75.8518946  65.0307815  34.6902096  76.8565904
  38.6906994   2.4503125  15.3076021  37.7362847   2.6092423  15.1326225
  38.7856182   1.4991356  15.4222776  63.5492303  28.0799392  75.9934376
  64.1166272  28.9019846  76.0693371  63.3587551  27.9456553  76.9434867
  14.5098719  61.0058060  16.9667464  14.7118444  61.9321734  16.6584094
  15.2310205  60.5415944  16.5036438  56.9641413  35.7136263  68.4894625
  56.4464694  35.0169744  68.9534077  57.4339216  36.1298223  69.2282786
  55.8215721  32.3679618  84.2973524  55.2853561  31.5261519  84.2610188
  55.0325356  32.9855496  84.2878045  70.0375265  52.0049117  60.0658104
  70.8566487  52.5306459  60.2329372  69.5620711  52.1700175  60.8922445
  60.3763731  32.8856272  67.6740479  61.2676731  32.5831705  67.7545428
  60.3402327  33.2805013  66.7888101  36.6930221   4.4180452  17.8661925
  36.2390586   3.7596537  17.2901243  37.5522532   3.9710867  17.8799387
   7.7515106  58.1523604  14.7157491   8.7454448  57.8941544  14.7540758
   7.7278311  58.6022883  15.6559007  65.5957854  28.2147516  70.3462961
  65.4411872  27.2505249  70.2869166  66.5924889  28.2035210  70.3615106
  59.7810919  33.3366791  61.5549236  58.8411565  33.0437984  61.5058059
  59.7537983  34.0651102  62.1660828  26.9665646  65.1667901   0.5612118
  26.8560069  65.2223184   1.4761436  26.9424679  64.2340804   0.3501227
  57.5665034  31.7929728  71.5869970  58.4929273  32.0467642  71.3881522
  57.8193986  31.0014876  72.2343510  71.3258617  33.0706175  59.6928132
  71.9183451  32.9719905  60.4186416  70.6630772  32.4085971  59.8982037
  56.8686724  29.0754641  64.3919043  56.4600181  29.1753541  65.2662837
  56.0980621  28.8423151  63.8339048  58.1744742  22.5288730  66.4127134
  57.7636310  22.3704742  65.5285798  58.1375847  23.5322347  66.4756754
  68.3549118  21.0121172  70.5113354  67.4547160  20.6458124  70.3467898
  68.5340020  21.3355564  69.5756285  67.7529490  30.8292840  56.2693269
  67.8660313  30.8524946  57.2378941  67.7281382  31.7885143  56.0434644
  61.3782133  48.3560355  59.0365649  60.3794944  48.1206359  58.9887412
  61.5366992  48.2287918  58.1057081  20.5565270  60.0376294  12.4713594
  20.6876247  60.4036453  11.5569843  21.4207943  59.6036421  12.6079790
  61.3767851  35.5980866  57.3245776  61.6800699  34.5763568  57.3369702
  60.8144895  35.4765898  56.4927485  64.8564202  42.4215900  74.1605474
  65.0919254  41.8657041  74.9504190  65.4070877  42.0215365  73.4761426
  57.4432596  25.1902684  71.2115977  57.2157111  26.0915933  71.1914664
  57.3937386  24.9294076  70.2960781  72.5998486  32.6362986  68.5032942
  72.9039908  31.8758457  69.0309726  71.9880165  32.2823714  67.8627203
  47.7928406  29.1558314  67.4926999  47.3235947  29.0215700  66.6549313
  48.6632494  29.3825717  67.1220237  69.5057530  41.0605613  60.7207369
  70.3919003  41.1343850  61.1844810  69.0087312  41.6267075  61.3021972
  69.6168349  26.2013484  69.2370099  69.1014530  25.7658294  68.5375970
  69.2285277  27.0742097  69.2602660  72.8332603  29.8056670  62.2916531
  72.3957669  28.9191257  62.2583421  73.4769956  29.6105199  63.0418438
  67.8145924  40.7404371  73.2023674  67.9591008  40.0239384  72.5493344
  67.0042617  41.1355991  72.8331644  51.1358209  41.3441608  64.1110612
  51.1913929  42.0665989  63.4790217  50.1754947  41.2362096  64.1869891
  64.8757342  26.0366290  61.2249603  64.7730778  25.4678472  62.0344697
  63.8980523  26.1126480  61.0260928  69.9365338  36.4388788  70.1569623
  70.7649401  35.9214428  70.0644420  70.0715528  36.9533631  69.2726906
  63.4406441  38.6491015  73.8725247  64.1929525  38.5986412  74.4852927
  62.6998984  38.3648651  74.4600118  71.2693851  35.2800876  55.8145186
  71.7922926  35.8584303  56.4491870  70.9385271  35.9257415  55.1896097
  60.2329676  17.1789332  59.1562182  60.3689722  16.4517805  58.5112507
  61.0394539  17.0599017  59.7217677  45.8135865  35.6309366  76.2469158
  45.3595667  36.2727643  75.6870000  45.0405074  35.0545062  76.4680852
  54.2698369  31.9461202  66.1421883  54.2082491  31.3675784  66.9590836
  55.1702669  32.3486072  66.3224254  69.1109764  53.6455132  53.7616690
  69.6571881  52.9745075  53.3260218  68.7805125  54.1596680  52.9761333
  76.4703993  34.7589481  64.6090846  77.4622136  34.5173556  64.5722809
  76.3904171  34.9698886  65.5439777  66.7700561  31.4331478  68.4299448
  66.8260465  31.5095163  69.4264630  67.4682734  32.0397656  68.1204163
  60.6704432  47.3615947  65.6288084  60.1380525  48.1138395  66.0005580
  60.5527521  47.5521237  64.6610665  64.0829446  34.7830204  64.7938538
  64.7652456  34.3502147  64.3131183  64.2737903  34.8098676  65.7208072
  78.6153860  33.0974637  66.9717922  78.8699645  32.1601011  67.2641494
  79.2078236  33.2143098  66.1894293  54.5549252  41.1638079  77.9766730
  54.7919505  41.0561874  77.0074942  53.6031713  41.3140918  77.9274570
  42.7292088  44.9090479  80.2238640  43.0192518  45.8416364  80.1188356
  43.3168504  44.5379405  79.5539859  57.9999980  35.1653954  66.0008091
  58.2205687  36.1392640  65.8655156  57.8872158  35.2151015  67.0126233
  54.7763669  38.8226433  62.1268012  54.4996833  38.0270970  62.5379231
  54.3336428  39.4809255  62.7185993  63.5893225  21.0038350  72.1875164
  62.7282948  20.8612462  72.5559686  63.4338928  21.6993314  71.5432877
  57.5770361  26.0052704  62.8159229  57.4729750  26.9134384  62.5237117
  56.6060747  25.8005498  63.0194853  68.3200835  36.1304889  72.2078789
  68.9527903  35.5613557  72.7229161  68.9740616  36.5998002  71.6519173
  58.0291837  14.8725380  68.3428222  57.1987188  14.6639757  68.8086707
  57.8160858  15.7643289  68.0121616  63.6370609  31.0137870  66.0703392
  63.0301618  31.6020506  65.6132833  64.3269317  30.9222264  65.3690651
  60.4763256  34.7369786  72.7923038  60.5734579  35.7023740  72.6442326
  60.5532240  34.4088398  71.8492885  63.0449208  30.4633033  78.1486331
  62.1023845  30.5368757  78.2809825  63.1952229  30.9709373  77.2756638
  64.6646597  29.2263407  59.2189118  65.3722306  28.5670936  59.0990321
  64.2542031  29.2064659  58.3137346  50.2296625  32.0624309  77.1443510
  49.3433537  31.8318893  76.9479667  50.2607770  33.0019477  76.8780200
  67.1678000  22.8999179  64.1694652  66.7301339  23.7178412  64.4009891
  67.7665730  23.2872540  63.4387447   4.3181277  39.9053764  68.1300484
   3.4370121  40.1180307  67.7642498   4.8426501  40.4699061  67.4658245
  55.6301174  43.6431972  77.6940160  55.5779424  42.6704247  77.8317850
  54.7366203  43.9112524  77.5246373  22.1461328  66.8350501   6.9846989
  21.2460378  66.4728981   7.2006006  21.9652240  67.0803491   6.0608263
  56.3841406  45.1034990  68.5705734  56.1933090  44.1847976  68.8367281
  55.7501415  45.1938716  67.8335628  39.1644320   3.3748581  17.9297051
  39.3509024   2.4668615  18.2727689  39.2463740   3.2257359  16.9668176
  58.1308066  34.3488870  78.5944333  57.6282184  33.5527846  78.9864291
  57.6750645  35.0815168  79.0876277  63.9071723  37.6585317  65.4172936
  63.2455593  37.4006548  66.0915564  64.0498328  36.7920189  64.9690069
  65.1692326  22.0405097  62.3633732  65.7699004  22.3036265  63.1560799
  65.8769030  21.9680243  61.6665329  53.9027879  27.2418276  69.2025824
  53.4243288  26.3849143  69.1746328  53.1020631  27.8184470  69.1523988
  67.4625430  46.2714773  64.1664791  66.9379681  46.7403307  63.4628730
  67.8323701  47.0507174  64.6179692  70.6172770  38.5168229  74.6510353
  70.6010945  38.7960369  73.6790412  71.5205434  38.7401524  74.8754182
  24.7727288  72.0183471   7.3717429  25.3456146  72.1696940   8.1193457
  24.7982860  72.8077353   6.8339931  74.4990658  34.0323310  60.1844659
  74.1476274  33.5189912  60.9173417  75.1104135  34.6937680  60.6295561
  69.0308150  23.5661857  59.5834415  68.7149484  23.5497949  58.6704657
  69.9264910  23.9381036  59.4782250  57.5080347  31.4674457  76.1424926
  57.4031147  31.8722771  77.0426880  58.4071822  31.1860105  76.1929439
  64.0291910  33.9701941  79.7073589  64.0324023  33.2333611  79.0812205
  63.2039405  34.3955132  79.4374034  59.8095206  33.2005700  70.2873433
  59.9214831  33.1862434  69.3128621  60.3298898  32.4366148  70.5562304
  60.3758639  14.5773628  61.2354045  60.8756607  14.5000600  60.3522457
  61.1516103  14.5567730  61.8224353  51.8972552  33.2566008  70.8680179
  52.2436627  33.9146647  71.4749494  51.1831676  33.7286840  70.3884673
  60.7816723  34.0806310  75.3403828  60.3052682  34.8830975  75.6399965
  60.6836931  34.2604110  74.3307003  62.4906304  36.6260592  79.4919607
  62.1528524  36.1143148  80.2389763  61.8481499  37.3328490  79.4012925
  68.6561097  26.5914624  63.6491421  67.7795373  26.6986742  64.1100933
  68.7717695  25.6295290  63.5375029  31.9476553   4.4322092  27.1373985
  31.9198983   3.4565148  27.2530547  32.9122441   4.5040543  26.8256251
  67.4288629  34.5844376  69.5358847  67.9399764  34.9796668  70.2807149
  67.0554787  35.4594642  69.1645326  71.2843996  24.5946036  63.5918651
  70.7316437  24.4073019  64.3319040  72.1124393  24.0862934  63.8294233
  28.6952966  61.3620356  -0.5213885  28.4751590  60.4259356  -0.4158367
  29.2514524  61.5006646   0.2728354  75.1987699  32.9909396  63.1386211
  75.3344323  32.3404898  63.8770047  75.5998627  33.7816295  63.5260267
   3.5365040  55.1315828  24.1809740   3.5508553  54.3249989  23.6617983
   2.5973060  55.3841435  24.1922360  59.4265721  29.0619147  75.3748669
  59.3769513  28.9913503  76.3755850  59.5214338  28.0688980  75.1727821
  64.0665887  53.4989812  53.1618637  63.8765003  53.7243902  52.2119833
  63.4083409  52.8325536  53.2895786  73.5712137  43.5486754  61.2230927
  73.8641093  43.7791697  62.1324941  74.4216804  43.2029289  60.8961462
  70.0011006  49.5326249  59.0546979  70.4982345  49.6375696  58.1993534
  69.9312157  50.5030175  59.2100312  62.1693454  26.4861343  71.3047178
  62.2369690  27.0896014  72.1244786  61.3257581  26.0705853  71.5860263
   5.9843726  39.2126666  64.0783143   6.7344583  38.6190883  63.8924924
   5.9966117  39.7620936  63.2556800  63.9008139  46.6709004  63.9496593
  64.6845063  46.9431366  63.4379197  63.2188838  46.7270545  63.2447060
  48.3729629  11.3081233   4.1776777  48.5533393  10.3470877   4.3202704
  48.6054132  11.3667175   3.2144089  63.4976356  39.1014567  71.1612040
  64.0452829  38.3867549  70.7713730  63.5636178  38.9382767  72.1413450
  64.1102679  48.0169893  69.0983739  63.6336675  48.6318431  69.7622152
  63.3705476  47.7732225  68.5499034  75.8122131  42.1196699  71.2441495
  75.4582317  42.9663919  70.8744352  76.5820013  41.9626056  70.6392975
  27.9345265  64.0255436  14.3988874  28.7268797  64.5044177  14.7035062
  27.2509507  64.7374133  14.4693041  71.9185398  41.5662815  71.6741518
  71.5620138  41.8701623  72.5063577  71.5100945  40.6848504  71.5990400
   4.3109820  50.4988999  55.2733039   4.3410801  50.8059062  54.3304989
   5.2778770  50.3543557  55.4131548  76.0540284  38.9946518  63.6976844
  76.4037996  39.5269793  62.9248826  76.8569698  38.8982790  64.2158080
  53.6126345   8.9893067   6.4804194  54.2021140   9.7718850   6.2866017
  53.8121951   8.7746339   7.3794791  69.9459950  35.4100933  60.0898824
  70.5272309  34.7227760  59.7987805  70.5672507  36.1322674  60.2710907
   1.6033960  32.5005992  65.6277505   1.5036640  31.6486521  65.0884527
   2.4549768  32.8121238  65.2773293  27.4502228  74.9154118  55.4904301
  28.3181782  74.9944866  55.9388243  27.6673469  74.1783343  54.8590152
  51.6120266   6.0570392  60.9884207  52.2506677   6.4479904  61.6534522
  51.0099763   5.6523083  61.6357718  49.9211090   2.2659599  59.7344829
  50.7884842   2.1170715  60.2026426  50.2205043   2.3997945  58.8491404
  43.0413539  78.6543455  52.4118681  42.2372267  79.2313640  52.4068495
  43.6424555  79.3368692  52.7963387  39.5110355  67.4586215  61.4912881
  40.4038258  67.7496675  61.2532951  39.3889780  67.8961894  62.3736127
  51.4592174   6.7358939  66.9229789  51.2222040   6.2898749  67.7926340
  50.6003562   7.2274725  66.7323687  49.2988267  12.2073796  58.6869011
  48.3785524  12.6186767  58.8118082  48.9682037  11.3553943  58.2558665
  34.9122585  72.2158420  55.7474134  35.8024788  71.8445771  55.9694306
  35.0819133  73.0235600  56.3142794  59.2441408  10.1117458  54.4630808
  59.6083607  10.7204910  55.1699530  58.7747265   9.4922959  55.1343233
  79.2295980  38.3879548   9.4793913  79.2385592  39.3722875   9.4516365
  79.2266331  38.1647581   8.5482959  50.0439801   8.7026882  51.1632078
  49.6181912   7.7904261  51.2328028  49.2402970   9.2297976  50.9894397
  50.6770022   5.9478645  54.6003162  51.0698286   6.2443463  55.4046042
  51.2583783   6.2758768  53.9144696  66.8162672   7.4695278  51.9334432
  67.1391798   8.3382207  52.2875996  65.8640987   7.7471422  51.7499136
   7.5766347  29.4952250  15.7883617   8.4035447  29.1468631  15.3503033
   7.0018314  29.5442439  14.9756701  60.2362105  14.1498475  66.8026422
  59.3719573  14.3804297  67.2729726  60.6570607  15.0085854  66.8129442
  51.8888613  12.9210065  63.4265080  52.8247249  13.3154934  63.3353596
  51.4755689  13.3989153  62.7004271  40.9322761  -1.3097579  64.1876780
  41.6048072  -0.7306515  64.4871496  41.2524411  -1.5729799  63.3085439
  53.8846933   7.8179071  65.5452573  53.0045811   7.4161929  65.6822689
  54.2105864   7.6118017  66.5003411  53.0265646  18.4563312  72.2017262
  52.1282894  18.1723873  72.4696171  53.5641832  18.2521969  72.9774383
  76.4622184  46.3469643  10.8984039  77.2566720  46.2850659  11.5290315
  76.5453079  47.2771793  10.6718752  34.1775231  73.2536503  62.7441247
  33.2420704  73.1152329  62.3931318  33.9215577  74.0012807  63.4143966
  60.3363248  17.4467243  44.5699987  60.1450857  16.6052621  44.1513364
  61.0035099  17.8474539  43.9646382  69.6075055  23.9620930  65.6115879
  68.9035730  24.5184756  66.1188418  68.9752995  23.3963189  65.0868195
  73.7593267  22.8004840  53.5895499  73.2409972  23.1315233  54.3571509
  74.1616660  23.6717502  53.3410025  61.3099288  11.7366889  46.8517701
  60.5344519  12.3325550  46.8721599  61.1991117  11.3006945  47.7521450
  10.4108651  43.2059481   1.0480582  10.4191077  44.1069450   1.4833599
   9.9098231  42.7246027   1.7203680  67.0667705   9.2282418  44.0122675
  66.5574511  10.0797408  43.9193922  67.7447649   9.5264542  44.6727061
  37.5054894  77.0253984  60.7595839  37.9495266  76.4042208  60.1557443
  37.6269142  76.4883910  61.6047182  42.6638312  74.7286931  37.7768311
  42.1686463  74.2811435  38.5620863  42.2690201  74.2676762  37.0269112
  57.5623105   8.9506810  56.3437438  56.5805623   8.7479232  56.4200148
  57.8618721   8.0042372  56.3235052  12.8263800  47.5806606   8.0463409
  12.4375119  47.4738405   8.9251010  12.1482725  48.1807182   7.6502848
   2.2012051  17.3519679  58.2243755   2.4052460  17.2121770  59.1378722
   2.8278371  18.0639905  57.9629221  55.9312796  14.7758451  74.0330032
  55.6630401  14.3580189  74.8379631  55.1268120  14.8688769  73.5648437
  66.2969004  20.4719848  65.1570991  66.5651949  21.3483549  64.7618183
  66.1954116  20.8752432  66.0832651  70.4336196  13.9262866  50.5049859
  69.9083193  13.3026211  51.0631976  70.7318968  14.5119747  51.2445699
  71.1282009  10.3141987  52.7465353  71.2806212  11.2442891  52.9818574
  71.9335566   9.9288204  53.0946116  19.5260947  46.9325646   4.7807817
  19.6486951  45.9552399   4.7552115  18.5971819  46.9116294   5.1028525
  33.8085855  76.2134752  61.4005295  34.0882896  77.0147215  61.9074741
  33.7746602  75.6167614  62.1888230  65.7595126  16.0870973  68.8075669
  66.3243275  16.8127113  68.4679341  64.9339800  16.3166074  68.3465116
  62.1974862  23.5540020  66.0200730  62.9721096  23.7224976  66.5537654
  61.9309577  24.4639291  65.6850507  61.6053677   7.7661875  60.8424151
  62.4575511   7.6267580  61.2407333  61.3405561   8.6565966  61.1299234
  77.4786288  19.1590864  58.2028105  76.9856825  18.7914397  57.4479992
  76.7026172  19.5050698  58.7361120  63.5653661  13.7116378  61.8613307
  63.4699256  12.7314689  61.6442338  63.0827173  13.7870488  62.6908207
  66.8171521  27.9027537  65.5234976  67.6737339  28.4232333  65.5557344
  66.3951105  28.3571961  66.3148482  63.5032457  15.2281609  67.2003904
  63.5180598  14.4165897  67.7772572  64.0116088  14.8090405  66.4267111
  59.4482877  11.4142053  67.4750732  59.5887966  11.4929565  68.4387046
  59.5797409  12.3841492  67.2553947  66.6518515  10.3638166  47.3482634
  65.8484541  10.3426603  47.9030842  66.3742619  10.7385811  46.5335479
  47.9541317  81.4382634  57.5777370  47.3585984  81.1026017  56.8129510
  48.6296319  81.9570724  57.1067791  68.9058907  19.1190731  44.8219066
  69.1772214  18.9848215  43.8982438  68.8254472  20.0892606  44.8451109
  13.2954812  51.1973176   9.1645173  14.2393537  51.0814687   9.0412085
  13.1579528  52.1257419   9.0936055  68.4571165   9.4713468  53.0370174
  68.5994706   8.7269924  53.6976408  69.4260001   9.7411539  52.9392318
  69.2047394  29.0484668  54.9313281  69.9816613  29.4863011  55.2812089
  68.5124261  29.6076011  55.4211554  36.2682636  78.9325871  56.3668985
  37.1671343  79.0242110  56.0500641  36.2841457  78.2487613  57.0350476
  71.5240575  15.8858246  51.8811179  71.9867141  16.4397383  51.2427399
  72.1766199  15.5790343  52.4793860  22.1237559  49.6957799   1.0654368
  21.4273891  49.0610633   1.0731985  22.7518155  49.3272032   0.3992538
  60.6850178  18.6758502  75.1811919  61.1839025  18.0515024  75.6980537
  60.5503037  19.3983204  75.8189753  56.2991824   7.8116376  64.3721534
  55.4859633   8.0543676  64.7873102  56.3843580   8.4853174  63.6910080
  63.9933172  17.8547290  63.1388881  64.0464368  18.2861884  63.9935909
  64.8618462  17.4214077  63.1630774  55.4674892   6.8065604  52.9719893
  55.5187888   7.6583029  52.4704462  56.4098855   6.7513721  53.2763581
  64.7126126   7.3701730  61.1384923  65.3193352   7.6227780  60.4497422
  64.5936819   6.3976384  60.9868973  58.2257784   9.4237373  58.9872917
  58.0723838   8.4830406  59.1438308  58.0594162   9.4630548  58.0219784
  67.9312413   9.7903448  57.7633898  68.5924446   9.3893438  58.2808910
  67.8999047  10.6959688  58.0063488   1.1401026  19.9039168  60.9139585
   0.5203905  19.2333747  61.3051004   1.9743990  19.6308836  61.3259039
  39.2327989  79.0566084  57.6810539  40.0786671  78.7716535  58.1206974
  38.8105537  79.5084436  58.4374243  12.4322615  42.0210186   3.5619948
  12.5198231  42.1536418   4.5280215  12.9701281  42.7297556   3.1796904
  63.2497027  17.0219104  58.3358963  63.2176108  16.8916651  59.3236412
  63.7946191  17.8413398  58.3278209  66.5093935  21.8910448  55.8845580
  67.1241745  22.5562797  56.2498108  65.9705465  22.4580136  55.3017378
  40.9274493  79.2236634  55.4801622  41.3820540  79.9285912  55.9598964
  40.2496588  79.0226405  56.1720605  78.0972061  15.4803749  43.9621289
  77.6627529  15.7466802  43.1119428  78.6973547  14.8005620  43.6857169
  60.0912726  17.6388870  62.6170187  60.6172264  17.8677749  63.4307125
  60.7898262  17.5276823  61.9572769  47.7984800  72.8682313  59.7110929
  48.6502442  72.7831564  60.1425334  48.0737034  72.4231351  58.8340543
  55.7399946  19.3962725  60.2097914  55.7928852  20.0587768  59.4841457
  54.8793286  19.5806737  60.6030348  54.4628533   7.6777931  68.2036857
  55.4358117   7.7823927  68.3010636  54.3579628   6.7559142  68.5249015
  61.1946661  19.4583911  72.5607205  61.3328951  18.5253608  72.1879918
  60.7171255  19.1863363  73.3464915  58.0487735  19.8783460  73.6891305
  58.3510200  18.9920097  73.3317952  58.6553926  19.9386350  74.4408695
  63.7049361  19.5895607  65.8316035  63.4393114  20.1309321  66.5867766
  64.5740402  19.9320313  65.6523705  17.5545771  48.7746783  -0.6868464
  17.6088197  48.2398180  -1.4929913  17.2063863  49.6157823  -1.0352124
  68.4412013  11.7960176  62.3735619  67.6848504  11.6962494  61.8713447
  69.1254439  11.3547822  61.8515858  70.0772334  13.8241678  60.5802814
  69.2271746  14.2990864  60.8892560  70.5204191  13.7916730  61.4591111
  72.2351566  22.2626795  65.6421354  71.4440801  21.7758671  65.2612968
  72.7479270  22.3742094  64.8386817  29.6763226  48.2178628   0.8054823
  29.1521193  47.6569946   1.4665386  29.8840132  48.9757533   1.3522302
  49.5199012  15.5875745  69.3021557  49.3900491  16.5054491  69.4557713
  49.5280303  15.5586692  68.2987256  64.3972387  19.8304233  52.2370430
  65.1280141  19.4082604  51.7357195  64.7318578  20.8045762  52.2169386
  55.8539724  11.9281622  70.8159763  55.1020441  11.9111914  71.4442044
  56.6166997  11.7538859  71.3743507  51.8158879  28.8478149  69.4633960
  51.0425103  28.2210519  69.4929286  51.6534988  29.3182035  70.3258227
  23.8318809  48.3247578  -0.4434592  24.4719455  47.6023370  -0.6615911
  24.1452450  48.9968011  -1.0042428  27.1096118  48.4552540   4.9348621
  28.0495124  48.2086982   4.7847894  27.2483490  49.4455906   5.1234309
  45.0258506  76.1651933  64.8042983  44.6955782  75.6808536  65.6383921
  44.2782949  75.8112220  64.2135756  33.8445380  79.7432716  55.1917440
  34.6269347  79.5302069  55.7581189  33.8998717  79.1115697  54.5018558
  69.1306602  11.4051358  48.4152780  68.8399528  11.5528450  49.3481067
  68.2602851  11.1051189  48.0518295  33.1314418  76.4856054  54.3718852
  33.5972471  75.8176157  53.8994791  33.0153436  77.2075547  53.6718952
  22.9347199  55.7270058   0.0111440  23.1777076  56.6379308  -0.0509416
  23.5515138  55.2617444  -0.6145113  38.2287668  75.0585959  62.3278784
  38.4640704  75.0954300  63.2815217  39.0867020  74.8295416  61.9355451
  73.2919458  27.2074329  54.9761268  73.6006024  28.0500166  55.4055532
  73.7563021  27.3625404  54.0970163  11.6108869  50.2144773   5.8259853
  11.3463663  50.3309677   4.8498195  11.9083088  51.1387907   5.9630332
  65.6884227  12.3847123  51.3001705  65.0465858  11.9001870  50.8300737
  65.1585211  13.0303551  51.7734680  50.7493023   5.7459315  69.5173363
  50.1901253   5.3712854  70.2185371  51.1585225   6.4809209  70.0101749
  71.2262554  19.2695153  49.2205727  71.2018031  18.7071117  48.3961024
  70.2752106  19.4809888  49.3689041  61.1681245  18.6632385  64.8443610
  60.6861294  19.0627064  65.5846034  62.0980372  18.7744349  65.2176500
  30.7234356  75.2935179  61.7603015  31.1757488  75.6279705  60.9881019
  30.4464931  76.0999394  62.2105732  37.3438906  73.8742897  68.5764143
  36.9872211  73.4502296  69.4012918  36.6513594  73.6990189  67.9185183
  58.2186750   9.3308385  69.9883028  57.9726579   9.2358502  70.9220421
  58.9624930   9.9672758  70.0042029  60.7777780  14.5790655  49.7921008
  61.3153627  14.6987310  48.9706160  59.9134997  14.8208673  49.4613770
  61.8132817  18.5079528  56.1332582  62.5989608  18.9525507  55.7840870
  62.1126163  18.0291360  56.8913847  60.4788428  12.2940302  37.9964172
  59.8585825  11.6308021  38.3150451  60.4248728  12.2527788  37.0281460
  68.0425005  14.9756323  44.1298383  67.2313354  14.9683191  44.7654340
  67.7484926  15.7176054  43.5426198  75.3720509  23.3151993  65.8924269
  75.8948505  22.6013313  65.4451703  75.9363733  24.0566265  65.6776489
  46.1298485  83.0933587  58.7489532  45.5512710  82.3169381  59.1198735
  46.8670536  82.5167613  58.4588961  61.5599462   8.5185316  58.1672767
  62.1486922   7.7681138  57.9908546  61.4957503   8.5462949  59.1451314
  60.1817000  11.4137753  49.3360993  59.9145653  10.8425223  50.0915391
  59.3541017  11.8708033  49.1201037  78.0532072  39.4036358   6.8328573
  78.7368560  40.0905296   6.5359619  77.7088816  39.8010861   7.6738360
  20.7296481  47.5249476  -4.8858299  21.0948778  46.9247703  -4.2159056
  20.2862147  46.8199835  -5.4819283  60.3388589  10.4022885  60.3067028
  59.8362371   9.7694392  59.8159235  59.7087565  11.0231342  60.6482139
  63.5466508   8.0595062  63.5295133  64.3651927   8.1918689  64.0397865
  63.8966172   7.7499833  62.6895820  17.0756846  51.2114772   1.9965052
  16.8931907  50.5203631   2.7082951  16.1855272  51.6698342   2.0019772
  58.8017839  18.9253070  69.9197010  58.4876671  18.1537703  69.3985107
  58.0903223  19.5893559  69.7616074  43.9005218  14.3036107  65.6301798
  44.1550855  13.3813311  65.4405169  43.2598435  14.5058021  64.9802239
  70.7341072  10.2544744  61.9350776  71.3977018  10.1435915  61.3039175
  70.1152934   9.5227957  61.6904935  31.4983997  71.6305020  58.9360762
  32.1363332  70.9534603  58.7378191  31.3648978  72.0457532  58.0629497
  45.5397065  22.4910645  54.0950858  45.0356994  23.1569753  53.5782582
  46.0269047  23.0372974  54.6904630  17.1845320  55.3861766   2.5872054
  17.8722740  56.1150419   2.4901288  17.6459779  54.7398848   1.9764969
  47.9963941   1.2679124  53.7011899  47.0851863   0.8388912  53.8493851
  48.0324453   1.7767285  54.5497984  48.2333781  14.7420310  63.4088579
  47.5533695  14.0375534  63.5180018  48.9815352  14.2812873  63.7697903
  65.5001458  30.4575392  64.0902569  65.2084510  29.7449225  63.4923547
  66.4696660  30.3082116  64.0354681  65.3871712  33.4889856  67.0618241
  65.8410101  32.7463895  67.4484652  66.0704928  33.8422760  66.4598342
  73.5335275  40.1332838  67.8169402  73.0959895  41.0529993  67.6969891
  73.6251086  39.9547674  66.8383020  71.0134072  25.2501662  59.1073005
  70.8297395  26.1510366  59.3580591  71.6596091  25.3286712  58.4021584
   3.3871509  31.2098842  62.8342797   3.4295152  30.4808681  62.2001590
   2.6379033  30.9239045  63.4573400  26.2860299  63.9004267   6.2769556
  25.4164259  64.3825847   6.3244916  26.6380219  64.5027779   5.5373791
  74.2884092  20.3285018  56.6102765  73.3803532  20.2948283  56.2048984
  74.2243822  19.4663496  57.0696622   2.5816773  24.0556421  56.8679748
   3.2514429  23.3897551  57.0550569   1.7902698  23.7297989  57.3745054
  77.7640636  19.8985690  54.6216202  77.4604182  20.6541663  55.1522615
  78.7609527  20.0003181  54.6791213  70.1731364  21.2271585  63.9332549
  69.4639358  20.6548650  64.2370900  69.8392850  21.5706015  63.0882263
   0.1489672  25.4732409  44.7460977   0.0581823  24.5122961  44.7860764
   0.7921256  25.6383882  45.4518474  13.7957143  54.7263268   7.8925004
  14.3206998  54.1466893   7.3394123  13.0672503  55.0662126   7.3007037
  69.1726722  39.8227244  43.1837739  68.6699933  40.6062534  42.8201895
  68.4440484  39.1716005  43.2068104  74.0928593  25.9248391  65.2401546
  73.5357617  26.2633223  64.4926174  74.8159933  26.6443747  65.2212257
  65.9571006  34.4834666  62.6160710  66.2945552  34.6471240  61.6824353
  65.0851298  34.8427313  62.5654944  72.8718792  29.3657199  59.4725457
  72.9716472  29.6314175  60.4290482  72.9314387  30.3085690  59.1115482
  28.0411417  63.1372787   3.5629882  27.3121205  63.6363199   3.1903117
  28.5285786  63.8312008   4.0636007  78.4647061  26.3539992  49.4561900
  79.3850594  26.1098077  49.7149227  77.9443935  25.8242115  50.1467267
  19.0390354  53.3567919   9.7214714  18.3651235  53.4708432   8.9630409
  18.4178647  53.2741042  10.4400019  74.6559829  27.6435744  52.4661134
  74.8205215  28.6056178  52.7243557  74.0200804  27.8449706  51.7168397
  65.7544952  28.9091519  67.4994159  65.6180468  28.7013140  68.4468104
  65.7436137  29.8654984  67.4860003  79.2671231  36.2701695  61.1450392
  79.5952039  35.3672743  61.2180729  79.3727056  36.4696970  60.1807736
  68.1830220  28.2779208  61.4826180  68.1512021  28.9566389  62.1177545
  68.3087761  27.4778005  62.0587001  70.7147458  32.0270141  50.7433675
  70.5057689  32.6791579  51.4376933  71.6673202  32.1448493  50.6344808
  11.8309015  28.4011174  58.1579915  10.9408105  28.5127563  58.6044165
  12.0730259  29.3100824  58.0469962  57.8024046  16.4341326  60.8194089
  58.5609705  15.8202805  60.9470645  57.4856594  16.1087429  59.9298003
  74.7009162  25.0241588  52.6224397  74.7706018  25.9822383  52.4491414
  75.6655278  24.8448240  52.7354900   1.4449406  14.2630010  56.3869868
   2.3095417  13.8582609  56.5234890   1.1751443  14.5414661  57.2044167
  26.5200191  54.0366472  -0.8042177  26.8028896  53.0755515  -0.7018652
  25.6343912  53.9483145  -0.3411014  64.5927403  34.1129890  59.2124013
  65.2728538  33.8760259  58.6086391  64.3872665  33.2311416  59.6393113
  65.2484472  11.6880353  64.6450452  66.0772151  12.1519334  64.7501328
  65.5092984  10.7536462  64.6240513  69.9005829  18.2255438  64.3295329
  70.3458947  17.3836019  64.6231849  69.0019702  17.9712331  64.5651215
  10.2889483  57.4142614  13.9287057  10.3952959  57.3631280  12.9505403
  11.1767250  57.3737861  14.2386337  74.3389044  22.5642762  47.7241232
  74.6080815  23.2154880  48.3833012  73.7874301  23.0876038  47.1116736
  79.4645814  30.8182238  43.5615536  79.2492748  31.3999841  42.8682845
  80.2160604  30.2893887  43.2590542   5.1961080  17.0592113  59.1692803
   4.8595924  16.2387123  58.7643420   4.8203141  17.7259687  58.5058633
  75.9590492  27.6018040  65.6757740  76.3605165  28.4692479  65.8223147
  75.9668463  27.2897769  66.6527379  63.9119153  19.8878510  54.9602472
  63.8711160  19.7526946  53.9745268  63.8592192  20.8621313  55.0120931
  71.6624158  45.4341601  60.6048782  72.2826715  44.6694255  60.6106552
  72.0240604  45.9131983  61.4112460  75.2410505  38.9681635  46.7243641
  75.3881612  39.8586823  46.2892931  76.1744843  38.6852137  46.7215417
  68.6898251  16.7089442  52.4465483  69.6276506  16.6105768  52.1006551
  68.5556334  15.8426303  52.8427972  74.4682984  29.4057865  56.7312195
  74.7301728  28.9045819  57.6047049  73.9399386  30.0915955  57.0880815
  77.9534827  23.6433917  54.1357419  78.2711022  23.9813684  54.9965520
  77.5837824  22.7812516  54.4005608  69.9985088  31.2910084  69.9050152
  70.6181947  30.6734098  70.2766354  70.3594628  31.3443799  68.9747521
  66.2636860  28.4460729  56.5236875  66.8518195  29.1793073  56.2763237
  65.4353277  28.9388276  56.7092715  57.3439791  19.2262550  65.4344485
  57.4195465  18.5048563  64.8132996  57.3228085  20.0267877  64.8877630
  29.2957084  70.2385251   4.4090642  29.2832798  70.6827738   5.2638869
  30.3036350  70.0738353   4.3648352  72.1629912  58.9374379  53.1375312
  72.1762128  57.9684996  53.3719129  73.1296175  59.1540023  53.2837194
   0.4618271  20.1019960  57.8434870  -0.4490683  19.7649764  58.1066059
   0.9496303  19.8560259  58.6427369  68.6805639  32.1877953  62.9387735
  67.8967346  32.5670490  63.3760458  68.3794326  32.0175503  62.0540424
  72.0848254   9.5482384  45.5309647  72.9723458   9.8914114  45.7616726
  72.2579506   9.2384385  44.6016251  69.8376214  42.4385469  73.8934760
  68.9905298  42.0819436  73.4614962  69.9032883  41.7666467  74.6022309
  21.9245445  53.4118391   7.9245305  21.1167758  53.8246242   7.5407060
  21.9384901  53.7765821   8.8519002   4.4583786  30.7309019  65.5358700
   4.3566824  29.8294465  65.1030281   5.4588326  30.7605453  65.4986886
   3.6614213  36.1229689  64.2483003   4.4489319  35.5863893  64.0732482
   2.9931993  35.4011563  64.1085848   1.2304632  50.8501738  62.0756949
   1.3890684  51.8468992  61.8498063   1.5502059  50.9362775  63.0222651
   1.9260614  31.8710129  59.2981991   2.5715122  32.3781661  58.7218349
   2.2880086  31.0153298  59.2774648  23.8042591  58.6046639  -0.1513683
  24.7638791  58.5065600   0.0558485  23.9110396  58.7426129  -1.1367187
  75.7939712  31.1090284  61.0829781  75.3447542  31.6346545  61.7298305
  76.6478082  31.5475002  60.9592456  74.6193899  27.5640232  58.8433240
  73.9378174  28.1586799  59.2176487  75.0935587  27.2206996  59.5911751
  70.8226704  42.8259557  58.2917658  70.0812105  43.4425694  58.1230116
  70.7490872  42.7554354  59.2490454  26.7609379  58.5744281   7.4663725
  26.2651739  58.9451813   8.2365662  26.3116662  59.0387107   6.7765137
  68.4047678  44.2370662  58.1661354  67.6135255  43.7776212  58.5849654
  68.4345648  45.0404060  58.6846671  56.1819784  16.8796140  55.4645533
  55.6421100  17.4116609  54.8159236  56.8980256  16.5694869  54.8050514
  78.1846628  29.9228570  63.2031778  77.5919607  30.1494970  63.9665125
  77.5429058  29.4232390  62.6620343  70.0956300  25.7909861  52.0880990
  69.4027240  25.0857312  52.1460762  70.6222237  25.5271280  52.9246674
   8.8117070  38.0025821  55.0819055   7.9053502  37.8625977  55.4157292
   8.8300855  38.9615866  54.9649284  35.8029033  54.6009403   0.7157415
  34.9698683  54.5171855   0.2371532  35.4828648  54.5965866   1.6507661
  71.0095071  30.6376502  56.0630315  71.6154971  30.7425786  56.8109707
  71.1290563  31.5079783  55.6401673   2.0160923  30.2376192  56.6416570
   2.2119617  31.0263285  56.1214785   1.2079675  29.8947324  56.2159992
  76.1561016  22.0669861  55.4795770  75.6025401  21.3621822  55.9088340
  75.4943507  22.5333116  54.9570389  78.6068975  24.7768118  56.8626564
  79.0700194  24.1638983  57.4560988  77.7088232  24.7581415  57.1763110
  68.5455493  29.6490400  63.9937334  69.3924314  29.5555171  64.5103603
  68.7914764  30.4233564  63.4426540  64.9784016  23.5208536  69.4932965
  64.0472478  23.2857123  69.3833078  64.9209858  23.7562556  70.4939323
  68.3939406  28.6366073  70.4956634  68.0624686  28.8093988  71.4279407
  69.1418028  29.2395754  70.4900675  72.7290076  12.5027463  56.9075101
  71.8864912  13.0092351  56.9457383  72.3679084  11.7205874  56.4813573
  66.0447891  19.9609944  69.8752889  65.2724963  20.2813628  69.3963692
  65.6295175  19.3352966  70.5247176  77.4838873  32.9052582  48.3998828
  77.2357422  32.6472436  47.4866544  76.9870632  33.7569609  48.5432866
  72.2302291  27.3747854  48.1104503  72.9455631  28.0656079  48.0523512
  71.6758452  27.6231232  47.3369973  77.4050303  36.9741988  58.5539329
  77.2753422  37.2036009  57.6110558  78.3884919  36.9896244  58.5707730
  67.2127399  21.7871804  60.5911987  67.8295140  21.0391887  60.5086559
  67.7328268  22.4719248  60.1225596   1.8603002  37.6129205  54.3520875
   1.6054835  37.9477248  53.4054633   2.5261523  36.9423026  54.0624068
  66.6106439  31.8296554  61.1914925  65.6397533  31.7208613  61.0185014
  66.7955018  32.7133001  60.9724083  74.9991814  13.7923366  56.5044992
  75.1389634  13.8654557  55.5557631  74.2611545  13.1500245  56.5954108
  67.6198997  36.5548745  51.3465092  68.3477027  37.2160571  51.2243478
  67.3837422  36.3873325  50.4194274  75.0241381  21.3052792  51.8914498
  74.3058090  21.3772269  51.2043733  74.5563688  21.9403621  52.5336771
  70.5237705  18.0012905  46.7005504  69.9723176  17.2074326  46.9724424
  69.9041205  18.4586019  46.1192708  68.7986779  23.8768173  62.3164678
  69.7380642  24.1010078  62.4108440  68.6393962  23.9929751  61.3475393
  66.5578282  26.9486283  59.4970014  65.9300420  26.7255184  60.2497231
  67.2894385  27.2866937  60.0223615  71.2091619  13.0530916  53.4567653
  71.1058654  12.8339550  54.3777430  71.9664496  13.6214757  53.3996394
  71.1472464   9.3997346  56.3291117  72.0395763   9.6858758  55.8985910
  71.4763028   9.2893089  57.2320062  62.9845424  26.2679243  68.8316285
  62.2629857  25.7714828  68.3965074  62.6019819  26.2535175  69.7727694
  57.6865134  23.3373093  69.1784092  57.3705286  22.7034692  68.5195903
  57.7200741  22.8015208  70.0010337   8.1062085  31.6495240  67.5026026
   7.4763416  31.0839820  68.0121468   7.5412339  32.4254586  67.3189074
  74.5570422  29.7191499  64.2178976  74.8913621  30.4672137  64.7755628
  74.3907384  29.0998153  64.9737727  64.7210121  32.0326148  56.1680917
  65.5898020  32.4924093  55.9289028  64.1217411  32.5313144  55.5551180
  73.6294848  39.2327606  65.0185692  73.2601050  40.1159699  64.7188545
  74.4957423  39.3018980  64.5477541  19.8631020  64.4504809  11.1618817
  20.3153956  65.3434455  11.1262407  19.1632483  64.5465108  10.4358384
   0.3150193  17.6673157  52.3651553   0.8788364  16.8503588  52.2766989
  -0.4505246  17.3194086  52.8898891  30.3417684  75.2176708  13.5549202
  30.1455641  75.9740218  13.0480396  29.4367206  74.8561263  13.7550985
  77.3906513  27.7794562  53.7973480  77.5156951  28.2152526  52.8933545
  76.5889618  28.2779590  54.0673634   8.3596547  51.3978208  62.0986807
   9.3654288  51.4205545  62.2013653   8.2029452  50.5099651  62.4960553
   2.9050960  27.6458550  54.9242728   2.2975001  26.8796527  54.8589083
   2.3102054  28.2952059  55.3570494  76.4556338  36.9196304  55.8475040
  76.0702024  36.0356229  56.0109122  77.1853151  36.6517967  55.2378793
   4.2872857  47.2768232  47.3713491   5.1060212  47.1667263  47.9182615
   3.6410051  47.6037952  48.1038903   6.0948042  37.3101033  55.6491127
   5.8977464  37.0797049  54.7224059   6.1482536  36.4173913  55.9798085
   8.2199602  35.8180345  68.8940961   8.2211885  36.6071189  69.4262794
   8.2932983  35.0868697  69.5254879   8.1657093  36.6604209  60.7338351
   8.1316155  36.7808666  61.7349544   7.5029450  37.3743302  60.5120288
  69.5703893  36.7331626  76.2498541  69.3072732  37.0055209  77.1404080
  69.3879412  37.4460377  75.6599725  76.4300359  36.0996048  60.7898669
  77.2534726  36.0205034  61.2231534  76.6154185  36.4514462  59.9044474
  73.8511278  44.4566475  54.9854466  74.6905382  44.0037813  54.8383691
  73.9451577  45.2475992  54.4394496   1.0911401  25.8860770  55.1501295
   0.2103196  25.7200315  55.5472429   1.6584955  25.2199344  55.5797158
   8.7561037  42.3537512  66.3381664   8.9481214  43.2262047  66.7166578
   9.5282428  42.2925417  65.7029076   3.0051352  34.8769690  67.5239893
   3.4192804  34.3929136  66.7655483   2.8095969  34.1651704  68.0799590
  29.2960428  71.5471490   6.6840434  29.9058776  71.9468559   7.3080760
  28.6662397  71.1169759   7.3015181   5.9080818  54.7267531  64.5641848
   6.4744589  54.7136552  65.4137934   6.6272501  54.5730055  63.9229146
   0.9829642  45.7163650  53.8017625   0.2312027  45.1210422  54.0232173
   1.6038854  45.4131499  54.5416663  73.1792838  39.7295865  52.2786015
  73.0268675  40.6818233  52.0529487  73.8857495  39.4940015  51.6916392
   0.2754771  44.2062878  63.4908415   0.6902850  45.0348080  63.1905863
   1.0660994  43.6671285  63.7026410   4.9778897  42.8884508  62.1551997
   4.3623271  42.9372732  61.4085557   5.3252237  41.9841166  62.0246970
  21.8175171  72.4073959  19.9758668  22.4390489  71.8656620  20.5136446
  21.7859091  71.8736467  19.1401269  70.0547864  10.3822191  39.2591526
  70.2291720  10.5219263  40.2536560  70.9386556  10.1785454  38.9481051
  75.7522303  11.1495597  57.2277852  75.4132378  11.7034747  57.9481204
  76.7384984  11.3711166  57.2909552  62.8443424  15.0230951  43.4697503
  63.7313019  15.0756942  43.0508277  62.9377155  15.5625974  44.2908863
  74.9137737  12.7672957  45.2671299  75.5350055  12.4198725  44.5054759
  74.8373087  11.8948802  45.7627588  44.0229686  80.7483239  43.0466758
  44.2907149  80.7594627  42.0789644  43.6097297  81.6516664  43.0492121
  48.9490137  84.2524091  50.3757006  49.2318201  84.2393386  51.3039045
  49.8170833  84.1695639  49.9147800  53.6631022  83.3682660  54.5718590
  54.2768456  82.9003205  55.1824704  53.0400506  82.7081147  54.2770538
   4.6926776  18.4689616  36.1629992   5.5176931  17.9495557  35.9906416
   4.0224598  17.8416514  36.0908644  54.3948970  84.2136280  52.2892969
  54.2131804  84.0264159  53.2695570  54.5440401  83.3120817  52.0043344
  46.7138970  69.5607821  60.3522314  46.6954573  70.3806873  59.8510908
  47.1808389  69.8190966  61.1574120  73.3272988  17.5900931  50.1420350
  73.4398440  17.0936562  49.3433018  72.6980256  18.3217461  49.9497697
  50.5699119  81.9759014  41.6706984  50.5321486  81.3632359  40.9450416
  49.6227571  82.1029969  41.8789384  75.6485993  14.7501036  52.9969288
  75.5547918  15.4163497  52.2667024  76.3977241  15.0883141  53.4891891
  68.1821634  16.7824032  42.2035668  68.2838057  17.8088946  42.2995340
  68.2174658  16.7625836  41.2414495  76.0392216  13.3226190  37.1875446
  75.6148203  12.8531654  37.9853362  75.3356029  13.1049836  36.5150759
  62.0184199   6.8522616  51.8826796  61.1357041   6.9358106  51.4771210
  62.2778068   5.9696215  51.5690294  58.2705705  14.0517660  33.6178566
  57.8769399  13.1638070  33.6251131  57.9113746  14.4656861  34.4150691
  73.6066793   9.8471154  55.5203618  74.3376819  10.3248329  56.0320582
  73.8450665  10.2002729  54.6177195  61.8122382   8.5717186  55.4890685
  60.8903961   8.4223581  55.3220671  61.8756966   8.6634591  56.4315788
  33.6768903  78.7206213  62.5554260  34.4500724  79.1645536  62.1013557
  32.9848045  79.3467944  62.4420705  73.3594299  17.4555150  55.4046770
  72.5859895  18.0190989  55.2151036  73.0551878  17.0861029  56.3134143
   3.4697368  11.0095824  48.1938179   3.2845176  11.1240672  49.1496003
   4.4210661  11.1878549  48.0981212   1.2795329  19.1219445  43.7142421
   2.2696051  19.0906553  43.4888910   0.9949361  18.8910658  42.8201367
   1.3606343  14.7438573  43.5032399   1.8871223  13.9647195  43.8496873
   1.3494082  15.2769181  44.3086581  79.4508490  18.3436449  41.5800480
  79.9592055  17.6375175  41.2658705  79.2218493  18.9426238  40.8514095
  75.1094760  16.8973373  41.8443641  74.5520670  16.1416633  42.1757627
  75.8212782  16.3147478  41.3762242  20.9766173  44.7660525  -0.5419807
  20.9155834  45.5099684  -1.2550109  20.3353164  44.1473015  -0.9685348
   7.1855601  14.5417224  49.1989728   6.5070968  15.2925834  49.1192299
   7.7136175  14.7341373  48.3897824  76.2398531  25.4009503  57.7388737
  75.2728087  25.4516304  57.9213570  76.5504383  26.2996291  57.9851829
   3.8414707  21.8500025  56.2739709   3.9880728  20.9194336  56.5035749
   3.2475065  21.7192019  55.5223026   0.8389211  22.5639182  50.2662319
   1.1701567  21.6387218  50.1653303   0.2205424  22.4037367  50.9444123
  65.3847017  15.1015004  41.9534459  66.1305550  14.4813470  41.8781244
  65.8359385  15.8466260  41.4691359  71.4107118  25.1960285  54.1032094
  71.9153800  26.0142728  54.3356871  71.8748907  24.5418576  54.6149005
  77.5950529  14.2321089  46.2662775  77.7498664  15.0836580  46.7524866
  77.5822397  14.6157417  45.3320741  79.4751431  28.7738140  55.4637323
  79.3463194  27.7740291  55.4840895  78.6384275  29.0213680  54.9994159
  70.1205219  14.1009315  38.3851228  69.6311320  14.1403685  37.5241058
  71.0388317  14.2051337  38.0277764  67.7833638  17.4479325  57.5120629
  68.3589468  18.1114206  57.1030963  66.8807277  17.8582461  57.2138301
   8.6544596  25.2107452  40.7097103   9.0588212  24.3061615  40.5401709
   8.3358211  25.4422908  39.8128041  61.8214811  15.2181715  47.3143713
  62.2654169  15.9718751  46.8054073  62.3891848  14.5037097  46.9586309
  77.1641251  25.7882885  46.8704418  77.5440391  26.1542612  47.6240439
  76.4255682  26.3428181  46.5992684  44.7662344  44.0938167  -3.4707790
  45.2207909  43.3046287  -3.7727468  44.2366628  43.7691721  -2.7166889
  66.2906327   8.2668323  22.6839025  65.9542348   7.5376041  22.0989192
  66.8376548   7.7373387  23.3158683  49.7563405  77.1937522  25.3452151
  48.8664964  77.3969832  25.7362086  49.4885218  77.4645236  24.3917676
  54.6609952  70.5592602  20.6210276  54.8845986  69.6971862  20.9893421
  54.7064052  70.3616232  19.6738457  23.3144894  46.7611616  65.0752571
  24.0828455  47.2340017  64.6805092  23.6734279  46.4425057  65.9096444
  37.0951669  51.5621984  76.6878811  36.8756632  50.8568084  76.0650863
  36.5676889  51.2696384  77.4980519  30.4756809  36.6459941  76.0517663
  30.6684845  36.7501528  76.9966474  31.3380215  36.3245728  75.7017978
  36.0206695  50.3872199  78.7674549  35.2196729  50.1772703  79.3293392
  36.2950033  49.4684876  78.5941202  34.0985315  48.5659036  75.3743725
  34.0136096  48.0377864  76.2112406  34.6095001  47.9230359  74.8222538
  27.4454316  42.5107534  79.1009506  26.6101390  42.3144004  78.6582961
  27.8067466  43.2094018  78.4906084  45.6152907  78.9899479  37.4656834
  46.3762941  78.7316149  37.9688857  46.0069956  79.0774192  36.5420854
   1.3922179  16.8541814  24.2368646   1.0644605  16.0672567  24.7662714
   1.9576461  17.2933649  24.8477352  46.2176098  73.9122735  19.2803203
  45.8690229  74.8321666  19.3309951  46.3749982  73.7555483  20.2483036
  28.6170348  47.8732363  78.7141490  27.9888394  47.6090355  77.9979491
  29.4371797  47.4188994  78.3743372  77.0437368  10.8800972  31.6679901
  77.8031557  10.2839985  32.1047578  77.0615944  10.4794229  30.7912981
  37.1331778  47.7085849  84.1459305  37.4122259  47.0559843  83.4531025
  36.2523792  47.3260946  84.3344852  24.3244307  38.1208886  78.0850690
  24.7690481  38.5418021  77.3292269  23.5050566  38.6870513  78.0620496
  22.7677121  35.1348785  73.1323068  23.1034784  36.0769387  73.3188824
  22.8648927  34.7471202  73.9965322  30.8432738  44.7279844  78.8397564
  30.2119098  45.0213836  79.5518344  31.1044163  45.6362545  78.5029215
  22.2074625  49.0664582  77.0957978  22.7182886  49.8887194  76.9387437
  21.4450613  49.2155745  76.5098521  53.1426022  73.2688754  19.7229008
  52.3696266  72.9282614  19.2368497  53.3624140  74.0739179  19.2675287
  36.9134708  45.4901046  82.7272452  36.6718065  45.1559876  83.6385652
  37.3821370  44.5972407  82.4539259  35.2401617  34.3281033  75.6970664
  34.3508214  34.7186607  75.7031545  35.0433243  33.6175659  76.3926895
  19.8563130  56.0738100  73.5250573  20.3402279  56.0561444  74.3588212
  20.5616872  55.8799997  72.8984020  18.5050179  44.6646218  69.7794645
  18.3943312  43.9753281  69.0852420  17.9377884  45.3829203  69.4758484
  23.6415042  20.4127874  13.0656933  23.2126536  19.5446772  13.1316563
  24.0691314  20.3087773  12.2052105  75.4371739  20.6081080  26.3468446
  74.6251238  20.2971311  26.7139357  75.2115891  20.6957597  25.3906496
  18.0351294  50.2429778  63.2811449  18.9477891  50.6319979  63.4329716
  17.5309837  51.0348788  63.5445236  76.0602926  15.4467611  21.8848549
  75.5608318  15.8421659  21.1406500  76.3581477  16.2550371  22.3359132
  23.1948388  51.7885524  76.2757651  24.1751689  51.7555783  76.3805142
  22.8943592  52.1439336  77.1129025  23.8255153  44.4380922  82.0181452
  24.7465356  44.5981810  81.7035794  23.4660250  43.9436312  81.2299690
  27.2404898  42.6404732  83.3949060  26.4118944  42.2899741  83.8851154
  27.8641520  42.1655803  83.8789740  28.7754728  63.5640610  78.7545829
  29.1329871  64.3246274  78.2427692  29.5071417  62.8942632  78.4568525
  44.6657409  38.9920462  81.0082134  44.8227718  38.7283163  80.0933850
  44.9434538  39.9562878  80.9997476  35.2855397  46.9781046  73.4651195
  35.3095070  46.0287888  73.6715026  35.2673854  46.9097688  72.4359726
  29.6621158  44.8469566  81.2680172  28.8186184  44.7313443  81.8113802
  29.8643470  45.7507966  81.6202779  34.1136638  39.1032369  75.1635296
  33.6310951  38.2737161  74.8706848  33.6089883  39.3020389  75.9645236
  45.5926603  41.3697305  80.8750735  45.6331469  42.3191391  81.1339628
  45.8642171  41.4438091  79.9631182  30.9177766  33.3743925  80.6745575
  29.9869755  33.5747276  80.9191253  31.2767304  33.2075450  81.5744753
  48.2209791  55.8583755  11.5445251  47.5998760  55.5331593  10.8483216
  48.2859581  56.8293216  11.3013462  29.3450106   8.7086393  63.9396556
  29.7612674   9.6009205  63.9378701  29.0392567   8.6903074  64.8238962
  62.2640093  53.7315614  17.4099320  61.6753086  54.4588913  17.1709406
  62.2004177  53.2319411  16.5548676  54.0322549  52.7975539   5.6821979
  53.7396881  52.0598738   6.3400485  53.4011493  52.5490339   4.9390881
  53.2179827  59.4611921   9.3195603  53.4772349  58.5067931   9.5123051
  53.5832361  59.5650251   8.4297227  17.7203104  23.1279756  69.2731200
  18.4726548  23.7331081  69.3941001  17.0235740  23.8313749  69.1271954
  23.7890820  29.1538359  66.3770426  24.1559043  29.8767753  66.9617754
  23.2183117  28.7108981  67.0003943  28.7328945  25.4717851  65.7634176
  29.5998050  25.7498198  66.2026333  28.4760386  26.3570407  65.5128021
  26.0079035  14.6713765  68.1929576  25.2628867  15.2103209  67.8273993
  25.5604783  13.8701207  68.4287176  34.0966670  66.1449845  15.1407730
  34.7332778  65.4511354  14.7822316  34.2235750  65.9328858  16.0847698
  64.5270300  70.1755449  20.1805739  64.6714495  69.3153522  19.7182219
  65.4340690  70.4545015  20.4016940  26.4229230  21.5901741  59.4950959
  26.5033985  21.7757527  58.4988565  27.1853549  20.9520496  59.5631894
  58.5898719  49.9387045  15.9887479  57.6865163  49.7458865  16.2362442
  58.9810504  49.0472147  15.9676234  40.2540108  57.2392417  16.4861490
  40.9715407  57.5112439  15.8866678  40.4821726  57.7435167  17.3141702
  43.9818137  48.8638050   1.4739989  44.9459053  48.8805218   1.3255498
  43.8972832  47.8615268   1.6043177  54.4375789  54.6548638   7.3512511
  55.3923098  54.4876437   7.3318610  54.1056134  53.9320298   6.7367983
  35.6896598  16.7457145  70.2037513  35.5350975  16.1673076  70.9450824
  35.0293164  16.4648514  69.5457048  15.1131933  17.5814539  63.2938777
  15.2205568  17.8116048  64.1936439  14.9259739  18.5130126  62.8645151
  60.2843928  53.1639405  12.7235199  59.9313334  52.2939565  12.4638886
  59.6689105  53.7980583  12.3438158  40.8522719   2.7517235  56.8515484
  40.3409843   2.9996539  57.6624699  40.4930735   3.5712225  56.2922597
  44.2562282  32.3379745  78.5418140  44.5381136  31.9993632  77.6541030
  44.1088950  33.2894303  78.3104912  57.5437950  58.4120025  24.4949227
  57.4245237  57.8466588  25.3196766  58.1525379  59.0478402  24.8532963
  27.9274987  29.1411504  74.6305033  27.8201022  28.5880052  75.4029324
  27.0036914  29.0454898  74.2338278  54.0211963  61.8944804  10.5939451
  53.2047782  62.4378118  10.6413066  53.7543877  61.0636202  10.2007816
  29.6252932  27.8821124  72.4374184  29.1412980  28.3993490  73.1538784
  29.5669636  27.0067731  72.8964165  43.1201306  24.7030321  61.8496732
  42.7407476  23.9886488  62.4226847  42.3584135  25.0104764  61.4025470
  29.9389032  26.7086530  69.5082059  29.0366383  26.3936533  69.6793283
  30.1224872  27.1835520  70.3411839  40.3081278  26.0229542  69.8403556
  40.9268907  25.2670656  69.6197972  40.7871915  26.7482055  69.2872382
  33.0069904  36.8811584  74.1920696  33.8609911  36.7687618  73.7007896
  32.4028796  36.2796630  73.6939531  29.0492997  29.4912243  68.6180356
  29.9277336  29.4552092  68.9797302  29.1957477  29.5450645  67.6769103
  41.4712904  30.0341598  73.7562861  41.2460007  29.7965253  72.8325670
  41.6167535  29.1182556  74.1395150  56.8548005  32.8098203  74.0643811
  57.3580166  32.3564004  73.3473870  57.1248415  32.2829504  74.8613454
  43.9422249  71.2326152  11.6707372  44.2624788  70.8467704  10.8273941
  44.1236074  70.4092156  12.2622572  44.8712720  26.7442281  66.4422591
  45.3158538  26.5435011  67.2504496  45.6084295  27.3031482  65.9257925
  45.5394548  31.7478013  76.2549012  44.9204845  31.3776228  75.6678128
  46.3952571  31.4670609  75.8694593  55.1021524  66.5031990  16.5177916
  54.4200714  65.9632457  16.9333009  55.6602115  66.6806385  17.2955223
  30.5940546  30.5538673  78.8308455  30.7760780  29.5702485  78.9297247
  29.6275680  30.5214766  78.9870067  27.7048312  39.1262089  77.4760466
  27.4119540  38.9022105  78.3997323  26.9067192  39.2128352  76.9953399
  37.2699847  28.9278227  73.2722714  36.8925009  28.3170645  73.9723481
  38.0762189  28.3695930  73.0561536  41.8277674  31.8869200  71.0468847
  42.0869966  32.5110405  70.3280391  42.7343948  31.8848970  71.5195501
  35.1585793  40.9150575  84.5209612  35.0009051  40.9907994  85.4667751
  34.2875959  40.8942632  84.1406076  24.5286505  38.6047065  67.8827271
  25.4191500  38.8699088  67.6190355  24.5543196  37.6493871  67.6069305
  48.5511555  26.9217572  83.9710068  47.7869972  26.9011737  83.3425601
  49.1110851  26.2109082  83.5833949  25.9231193  33.8395562  68.9595897
  26.7106234  33.8364053  69.5871259  25.2265309  33.7584259  69.6627938
  21.6340375  44.6266790  76.8332780  20.9083420  44.6034536  77.4969918
  22.4087031  44.6642388  77.3799926  51.7681097  39.4398903  76.3981367
  51.4485996  39.9181873  77.1890755  52.0545016  40.2148779  75.8881276
  57.0879805  52.2506122  11.8966779  56.2580027  51.9783353  11.5138482
  56.7371938  52.7935630  12.6805726  37.4615829  26.3688677  69.4524965
  38.4426609  26.3098883  69.7174234  37.4054879  25.5511439  68.9745247
  38.1241064  34.8759423  76.8007440  37.9146974  35.0859876  77.7117813
  37.2730930  34.8590990  76.3104334  37.7793816  32.6000664  81.0947122
  38.3330702  32.0129870  80.5322942  36.9745209  32.0343139  81.2582712
  46.4248012  43.3757548  73.4127730  47.0546322  42.8027548  73.8243058
  46.5328621  43.2345103  72.4537890  38.6616702  23.1566375  77.0430603
  38.8631205  22.2050999  77.0020681  37.7751919  23.1781229  76.6966941
  36.0553271  28.3597815  70.6134952  36.5479431  27.5735263  70.2297826
  36.6625908  28.5153878  71.3834945  35.5727735  27.1161411  74.6230556
  35.4673039  26.1515807  74.7639409  35.0624463  27.1729766  73.7871894
  63.1654516  65.1596603  17.7139387  62.1945751  65.0241568  17.8901354
  63.5369106  64.5767618  18.3650705  69.5686505  40.6357516   8.4607513
  68.8934708  41.3727189   8.3504702  68.9048695  39.9916121   8.8502834
  30.7798261  55.2770145  75.5232674  31.3801482  55.8971050  75.1474720
  31.0384637  55.1605715  76.4315977  32.4441700  34.4779902  75.9217904
  31.8423009  33.9874561  76.5105924  32.2190582  33.9418728  75.0698448
  31.1887105  25.7700369  76.4757695  31.4613843  26.7021454  76.3219286
  30.7648745  25.5441660  75.6318504  31.7455043  54.4911922  78.0159876
  31.2226017  53.6962319  78.0986301  32.4688610  54.1758714  78.6903444
  43.0791712  39.1932349  70.4016336  43.0155692  38.5512097  69.6900234
  42.2193195  39.1065083  70.8319406  28.2067484  40.4429241  73.8337498
  28.7678028  39.6609780  73.9784723  27.5333035  40.0203543  73.1940091
  35.3574273  41.3158767  74.7438970  34.9293959  40.4971518  74.9461978
  36.2364717  40.9468926  74.3530167  41.6225806  27.1258331  74.2500284
  41.9608330  26.2130254  74.2223372  40.8941272  27.1048904  73.5922909
  39.6201782  38.8732644  80.1740334  40.4257321  39.1559628  80.6112090
  39.2116931  38.2639822  80.7974726  33.4415771  42.1099380  80.7421422
  34.3071969  41.7192985  80.9943563  33.6165492  42.4065772  79.8326251
  32.6402656  49.4255361  83.9188750  32.0841621  49.7001060  84.7417247
  33.4115436  50.0081158  84.1279294  20.9174065  39.2446636  66.7639199
  20.5201323  40.0185167  67.0985979  21.7906320  39.5453025  66.4760163
  47.1081266  21.4477645  74.4512034  47.5968447  22.0313546  75.0677465
  46.6021472  22.1701340  73.9971584  22.7181665  41.0483590  75.6687229
  23.4461346  41.4767560  75.1176938  22.3911239  40.4115343  74.9598619
  35.9091218  47.8704701  78.1298141  35.4343572  47.6021330  78.9632197
  35.4916673  47.1935694  77.5224592  40.0432367  15.1513948  66.9209720
  40.0243139  14.1976131  67.1063510  40.7641963  15.4663514  67.5023723
  64.5002596  60.5825533  20.0634550  64.5698873  60.3509514  20.9975863
  65.4436711  60.6244571  19.7708204  29.1122951  43.7871916  77.2012242
  29.5957970  43.3997529  76.4348896  29.8587342  44.0587104  77.7771765
  43.7753714  22.1754417  71.1222296  44.1330003  21.5842859  70.4894174
  43.5349160  21.6066331  71.8289315  43.4870804  34.8299315  77.2562368
  43.2486542  34.3456880  76.3841888  42.5437231  34.6783002  77.6341624
  30.0075042  47.6209262  84.8346007  30.0311201  47.1291325  85.6356313
  30.5741892  48.4468552  85.0011366  46.5313438  28.3148397  65.0301542
  46.0475378  29.1778562  64.9384731  46.7323073  28.1176919  64.0855688
  38.6188016  42.6837969  77.9734603  38.8544239  42.6328643  76.9988260
  39.3107679  42.1239601  78.3240633  20.0241415  40.5514486  80.1498334
  19.0675123  40.5996505  80.1827956  20.2478383  41.1763409  79.4974700
  24.9746599  29.0740986  73.5552169  24.5417089  28.2541509  73.6689280
  24.4746657  29.6916939  74.0914700  39.0328945  33.7701627  73.6880390
  39.3100636  34.6277166  74.0866061  39.5504879  33.1205341  74.1892805
  64.7201141  67.7662050  19.2769537  65.2224997  66.9251309  19.3496311
  63.9737201  67.4221706  18.6978251  51.3576364  47.7242509   1.2812289
  52.1944399  48.0902216   0.9101100  51.0226275  48.6129966   1.6388712
  47.7655507  31.1270931  82.0543240  46.8707257  30.9484593  81.6718876
  48.2565954  30.3457474  81.6519397  34.0213034  29.9156097  78.3115901
  34.0039890  28.9229804  78.3874084  33.4646507  30.1424208  79.0876504
  37.3493814  31.9780960  76.1603276  37.8990793  32.7432182  76.3536868
  37.6609577  31.3125410  76.7973735  65.2325462  53.7170330  17.4291354
  65.3163219  52.7875516  17.7588737  64.2553222  53.7699542  17.5013525
  37.3901470  23.5830294  68.8082313  38.3228862  23.2860336  68.6544276
  37.3379931  23.8167757  69.7215502  26.0843815  34.8647319  73.3414840
  25.2730101  34.6415502  72.7839129  26.2358627  34.0451866  73.7772823
  59.6491254  60.3238694  16.5059974  60.3299063  59.7031328  16.3049098
  59.3417995  59.9555896  17.3745862  43.1487346  36.3131686  70.3091340
  42.5345468  35.7577908  69.7839417  42.7358500  36.2475589  71.2145110
  35.7944115  52.8817616  68.8076602  36.1382756  52.6052957  67.9476409
  35.7869959  53.8450766  68.7366285  32.5939737  45.0352939  69.4874771
  32.6121729  44.4538597  70.2847207  31.6325706  45.0494632  69.3125959
  35.3381069  38.2672944  82.1162697  35.3860883  37.6838422  81.3206062
  35.3501377  39.1617311  81.6823455  13.4303151  45.7804691  73.6403033
  12.7142262  46.5029640  73.8197933  12.8742890  44.9628169  73.5864715
  59.5372979  59.6435150  12.5941415  58.6180768  59.4573384  12.8801212
  60.0353842  59.1032556  13.2162302  47.8576042  23.1994924  81.5842754
  47.4889142  23.9835059  81.1304622  47.0976553  22.9194264  82.1864498
  41.9038969  27.3868533  68.0663819  42.1666849  27.8947117  67.3056090
  42.3581411  27.9546889  68.7924541  51.4828424  26.3539638  75.5150061
  50.5682553  26.0019292  75.6450091  51.9699059  25.5334202  75.2799984
  41.6557605  31.0534697  77.2437070  42.1066145  31.5571498  77.9566533
  41.5250230  30.2089562  77.7309068  45.0834376  72.9870038  17.0522365
  45.4126694  73.3404448  17.9495804  45.9329652  72.6836331  16.6783917
  31.0761873  18.2098871  64.0363826  30.3540765  18.5434599  63.4710396
  30.6329775  17.4129697  64.4314712  37.1574173  27.7488445  76.9681284
  38.0411583  27.8203858  76.6074840  36.6151201  27.6785134  76.1785150
  79.2955077  52.6434051  17.3095480  78.4281966  52.4202217  17.6168983
  79.2022839  52.6395176  16.3468634  40.0998787  19.4979605  63.7853251
  39.1941062  19.2238056  64.0576439  40.4234564  18.6724345  63.4051875
  49.2358631  28.9922530  81.1430452  49.9541269  28.8178565  81.7699832
  48.6446274  28.2055629  81.3435391  52.9485623  35.4019005  72.4688686
  53.2165052  35.0697524  73.3433497  53.3634110  36.2976362  72.4960866
  45.5337135  24.8821731  75.9136634  45.7775885  24.5177151  76.8276741
  45.3608723  24.0508035  75.4554997  57.3176149  53.3631560   7.8835201
  57.4415841  54.3283243   8.1466005  58.0417555  53.2443805   7.2589145
  48.1785677  27.2624425  57.6732252  48.7110363  26.4959182  57.4696516
  48.7986406  28.0136348  57.6919898  49.6096833   3.9173877  67.7766048
  49.9684073   4.3409543  68.5742571  48.7482672   3.6188927  68.1026530
  26.8980083  38.9623457  72.0802517  26.1466117  38.5859701  71.5387275
  27.4471531  38.1607616  72.1934740  40.4740158  21.2719516  75.3185478
  39.8722827  20.4519571  75.5126787  39.9027182  21.7549926  74.6955449
  70.3311946  53.3203426  17.6316286  69.5069632  53.1515335  18.1251270
  70.9426990  53.2496579  18.3960519  46.2281959  26.8055691  74.2092461
  45.7307785  27.3815113  74.7880856  46.0974144  25.9589280  74.6704353
  25.1589891  36.1387653  67.6804087  25.6472326  35.3333755  68.0097203
  24.6002218  35.7457911  67.0125824  28.5430435  14.5783758  67.4079934
  27.6174113  14.4519218  67.6384464  28.5806606  14.2005477  66.5140366
  68.8766492  59.6069331  17.2749221  69.7557746  59.1938039  17.1577840
  68.3279808  58.9105100  16.8856271  46.6331243  80.7081709  17.7419064
  45.9948299  80.5337628  17.0132707  46.5570302  81.6315265  17.9065885
  48.5586024  65.7243677  15.2880112  47.8288303  65.1435641  15.1072620
  49.2158455  65.4039059  14.6560746  22.4811265  40.4462465  71.4546125
  23.0703370  41.1789188  71.6050436  23.0038835  39.7971661  71.0372610
  35.6383732  44.1170287  75.0312997  36.5991504  43.9454017  74.7822274
  35.4093403  43.1432466  75.0999606  61.7251712  47.6886415  18.1449365
  61.8028661  46.6971517  17.9914779  62.1327842  47.6709537  19.0658046
  50.0886308  46.5742664  68.3152071  50.2258891  45.7182005  67.8326178
  49.1182369  46.6703218  68.2459330  39.6650971  51.6931286  77.5627543
  38.6650888  51.7093402  77.4121458  39.8042447  50.8093970  77.2968349
  43.0231678  49.2252189  75.8753320  42.0867739  48.9161275  75.8616421
  43.4573905  48.3826731  75.6117730  60.3990847  43.2270618  69.5979876
  60.8923672  42.4278870  69.9172408  59.7164670  43.2816059  70.2649417
  42.8023750  39.5105875  74.7372087  43.5009372  39.6158438  74.0529982
  42.9908685  38.5633865  75.0151268  47.5531363  36.1875060  73.9371308
  47.5540173  35.3396145  73.4067123  46.8221228  35.9997049  74.5453203
  51.8637088  49.3521734  61.8044756  51.1998776  48.9114469  61.2150767
  52.2821229  49.9998821  61.2682561  58.8242265  48.6339965  71.8010634
  58.4839540  49.4409746  71.3547119  58.3985820  47.9182008  71.3141886
  40.4617871  37.1121588  78.2514086  40.2728372  37.8303856  78.9080187
  40.3072704  37.5964092  77.4067341  51.0011892  46.4363236  78.1678477
  50.6189953  46.6579208  77.2717336  50.3069386  46.9298062  78.7448109
  20.6885692  13.9027113  14.9936575  19.7026215  14.0492381  14.9755869
  20.8066690  13.2867774  14.2868801  45.4551259  54.6993659  60.0661367
  44.9307810  55.5142734  59.8745401  44.8666412  54.0194234  59.7086290
  26.0611255   6.4722093  15.9512433  26.3464663   6.8373097  15.1183278
  25.8419497   7.2686967  16.4759180  54.5188513  51.3919663  69.1792338
  53.5573526  51.7097352  68.9892830  54.9765028  52.2575240  68.9237854
  36.7496407  54.2003231  75.6945026  36.9980168  53.3892013  76.1879102
  35.9233046  53.9177875  75.2854299  51.8414082  48.4337732  68.3842860
  51.0816148  47.8228497  68.3044027  52.3228214  48.1421868  67.5936695
  47.5183633  33.6094239  80.5538305  47.5230954  33.2088150  79.6715851
  47.9317906  32.8680857  81.0407362  43.9723399  53.9231576  68.8028401
  43.6045173  53.0293874  69.0882943  44.9043665  53.7495279  68.6353586
  38.7574840  45.4251707  77.5572904  38.4801087  45.6661504  78.5184226
  38.6188718  44.4735857  77.6258837  42.3403971  42.0338476  74.3702988
  42.5562788  41.0907367  74.6249392  41.8420671  42.3100983  75.1504789
  46.5837784  57.0088311  70.8418352  45.7923518  56.4946274  70.4710839
  46.8841152  56.3274446  71.4515810  39.7025745  48.6240793  78.1809410
  38.7993213  48.5164665  78.6028113  40.2218762  48.1665255  78.9376654
  46.4026892  41.2263564  78.0403754  46.3495546  40.2792739  77.7873768
  45.9322893  41.6451460  77.3145809  50.5725258  57.7375533  66.9182459
  51.2481004  58.2481711  67.4038997  50.3696731  57.0822636  67.6733388
  37.0398928  37.7137195  75.4160298  36.1588616  37.9982199  75.0895460
  36.9254902  37.9636125  76.3720323  52.6271757  19.1203717  67.6723640
  52.0987988  18.7477012  68.4517452  52.6563088  18.3798613  67.0934084
  35.6769502  38.6510164  77.8679649  34.6907929  38.8885978  77.8931431
  36.0306670  39.5394529  78.0507637  43.2780677  45.6391096  83.2830897
  43.0978646  44.8946950  83.9278154  42.5591018  45.5408371  82.6679344
  51.5768055  38.9071251  71.4649931  50.7207818  39.1247072  71.0780410
  51.2488821  38.6172293  72.3480766  50.8326196  47.1770580  70.8957287
  50.1602753  47.0276441  70.2387209  51.6089077  46.8154502  70.4269576
  49.4827911  39.0563564  81.1214124  49.2864428  39.2888651  80.2068381
  49.4334176  38.0962393  81.0997596  41.5987127  36.9825140  72.7249089
  40.6800221  36.7108075  72.6644637  41.4470536  37.9711050  72.5127948
  44.3965349  58.4930575  59.9676663  44.9045392  58.7571008  60.7713618
  43.8251696  59.3231677  59.9188608  43.6729402  43.9254477  69.1958196
  44.4839939  44.4515057  69.1524209  43.9652710  43.1975948  69.7632002
  38.8905217  34.7291052  71.0177684  38.5956200  35.6485847  71.2460172
  38.9051607  34.3239779  71.9201100  26.8725940   9.0954859  14.6406156
  27.4846160   9.3095456  13.9125212  26.0256598   8.9434799  14.1609698
  37.6681047  40.3187154  73.9909395  37.7444545  39.8425034  73.1200522
  38.1964548  39.7098202  74.5475911  43.4375472  66.0194682  67.7152689
  42.5995251  66.1859109  68.1354860  44.0488100  66.4939994  68.3266061
  37.7088159  47.3043429  76.0859958  38.2420745  46.5852881  76.5749472
  37.2596499  47.6318444  76.8692390  47.5443336  51.7830363  70.0362848
  48.4085376  52.1634027  69.8041550  47.0050287  52.5765135  70.1131908
  56.3337383  51.7720550  66.8576559  56.9962785  51.9412181  66.1466139
  56.4884199  52.5500468  67.4337943  29.4471244  38.0923652  73.9308511
  29.9017739  37.5663917  74.6259262  29.0870852  37.4137496  73.3346348
  34.5506830  46.5025771  80.0084076  35.1622737  45.8213639  80.3841875
  34.3779942  46.9754280  80.8369047  44.8506115  36.6949855  82.6568020
  45.0288779  36.0174797  81.9638863  44.8662789  37.5129769  82.1306882
  46.6167766  59.7816745  70.9575780  46.7869870  58.8272219  71.0023393
  45.8911106  59.8111052  70.2849881  46.3300791  43.9855389  68.4064891
  46.2478354  44.8191485  67.9359703  46.8658188  43.4706373  67.7421230
  40.6468911  42.1880270  72.0174076  39.9602287  42.7077356  72.4904821
  41.2363168  41.9720426  72.7896260  48.0543294  47.5402509  63.3200690
  48.2822303  48.4085245  62.9957286  48.8858388  47.2352757  63.6616851
  36.4448259  41.3167877  79.0067859  36.6787879  41.1723227  79.9600469
  37.1766080  41.8944070  78.7260272  50.8668977  37.6008286  84.8737261
  50.6177332  38.5122200  85.1300375  50.7564848  37.1294590  85.7088621
  24.7983144  41.8029704  74.0964276  25.7016741  42.1885577  74.3356100
  24.8240826  42.1300836  73.1660279  31.6552424  46.9786694  77.6330194
  31.5163811  47.9908730  77.7008054  32.6320875  47.0020099  77.6208510
  51.6864736  54.9689875  64.2351189  51.3845307  54.9074608  63.3266483
  52.1021821  55.9085914  64.1666919  39.1460117  36.5713751  73.7507535
  38.4770837  36.6935099  74.4355963  38.5403853  36.7464300  72.9482774
  44.7797286  38.5902525  85.0520250  43.9119928  38.9726010  84.8222713
  45.0474855  38.2324593  84.1590499  33.6240424  18.4898525  13.2546566
  34.2855219  19.1052768  13.7292765  34.1851617  18.2876643  12.4693076
  40.1803499  38.0318461  75.7294407  39.8520974  37.3852229  75.0717529
  40.8368805  38.4844573  75.1971123  50.3887977  49.9156327  71.4430999
  51.1372055  49.3342842  71.6032942  49.6970626  49.2370898  71.1829159
  60.4910215  42.0579988  65.5322045  61.0767565  42.9035648  65.4174423
  61.0214801  41.6613711  66.2652333  49.2978524  47.6490301  79.8967774
  49.3424109  48.6603180  79.6685238  49.4614207  47.7271472  80.8089046
  18.4221942  14.4315647  18.8883395  18.8436140  15.0236241  18.2075078
  17.4642881  14.7398507  18.6291454  42.8908527  55.1534130  54.6854164
  43.5951441  54.5780718  55.0833608  42.9374922  55.8865292  55.3641053
  40.8227107  45.6117626  81.8630176  40.5167367  46.3717524  81.2839249
  41.3452259  45.1794470  81.1105113  24.9211808  15.0918257  12.6608786
  24.1339697  15.2704079  13.2412286  25.2738644  16.0352459  12.6128943
  31.4878889  44.0591531  87.6265003  32.0801135  44.8099704  87.2681246
  30.9686690  43.9444003  86.7910791  43.4328430  32.7437662  82.4426950
  42.9449429  32.0041557  82.0527690  42.6133183  33.1682554  82.8344079
  40.8862363  34.4653288  77.9475911  40.2199336  34.1699220  77.3268579
  40.5863652  35.4192029  78.0069848  23.3559888   2.3840677  25.4842208
  22.4944059   2.7328071  25.1917313  23.9844758   3.0829369  25.1929097
  50.2400176  55.6721481  68.6975990  50.8992901  55.2795042  68.0653448
  49.5048683  54.9951515  68.6093023  48.2072982  39.2091389  74.2232130
  47.7315573  38.6526354  74.8812359  49.1109341  38.8970444  74.2168906
  42.5781258  42.1604350  82.3475773  42.3479778  42.6348102  83.1967924
  43.4442641  42.4341698  82.1628436  47.0542429  40.7244619  69.5046189
  46.6927052  39.8787452  69.8025063  47.2410125  40.5237201  68.5534425
  25.4514733   8.5480675  17.6771835  24.6931342   9.0250767  18.0589028
  25.9598616   9.3146650  17.2816165  39.8550919  39.8711813  86.9874031
  40.6202272  39.3630211  86.6445039  39.2862749  39.9159299  86.2294871
  27.6120764  24.1024121   7.5225593  27.1924658  23.2486478   7.3657175
  26.9821260  24.5034647   8.1286290  37.9877004  40.0112433  85.2279964
  37.9704205  39.0797785  84.9121419  37.1677505  40.3372672  84.7994942
  45.9246328  33.2103866  67.7499824  46.5577991  32.8233986  68.3823816
  45.0669109  33.0621227  68.2045280  17.6678126  12.0735841  17.0581879
  17.8782068  11.3477895  17.6475428  17.5471252  12.8262837  17.7052714
  28.0382062  16.4545150  29.8439445  28.6530755  16.0846963  30.4809280
  27.3240008  16.7514071  30.4332378  40.4479408  40.7210606  78.4149615
  40.5204623  40.9500848  79.3618007  40.1239511  39.8239703  78.4237660
  65.3180679  45.5893170  60.6183018  65.9977934  44.8392702  60.4100955
  64.5548699  45.1158580  60.2050997  33.4806513  54.0213596  70.0872054
  34.0358101  53.4339533  69.5866117  33.2835126  53.5268745  70.9108367
  22.8948039  25.5547803   7.4416795  23.3861677  26.3723840   7.6277016
  22.2263483  25.5584459   8.1619976  28.1063757  18.3163839   8.7541424
  28.2339104  17.8708633   9.6317798  28.4527316  19.2324969   8.9194026
  41.7820368  47.7794988  79.8282316  41.7585381  48.4921655  80.4420706
  42.6472982  47.9013677  79.4277803  43.4075862  28.5067163  70.0185081
  44.2672041  28.9026746  69.6716884  43.7819529  28.1654271  70.8442385
  32.3892276  14.3998496  14.8783860  32.4053102  15.2734881  15.3189687
  31.5452441  14.5214503  14.3164198  45.0089008  34.6668290  80.9989552
  44.4094790  33.9928028  81.3709304  45.8409908  34.1416189  80.9417561
  47.4295992  53.9480063  64.2228204  48.3019479  53.6667691  64.5139774
  47.5556631  54.1002720  63.2623988  56.5552954  59.8957587  54.1538294
  55.8543820  60.2834717  53.6720050  56.2297159  59.6965827  55.0142354
  25.9578829  46.2151330  71.5656553  25.0167705  46.0309614  71.4161135
  26.0226530  47.1615905  71.5578091  48.1755670  40.8437012  64.3117636
  48.3417356  39.8966949  64.3420642  47.8832029  40.9355645  63.4084240
  32.2771575  43.5000082  71.5595916  31.6514768  42.8223495  71.7820745
  31.7481034  44.2767427  71.8771046  28.7455940  17.2048761  11.2246317
  29.2424789  17.5714806  11.9775619  29.0780858  16.2742498  11.3878397
  31.5802318  50.9261471  75.5957700  32.0377330  51.3661342  76.3235350
  32.1711909  50.1557499  75.4497170  42.0860163  57.3410117  71.9052227
  42.1653906  58.2466220  72.2478470  41.5183784  56.9523221  72.6363717
  45.7170510  38.5153226  70.4357449  45.6911866  37.5728550  70.7303574
  44.7430480  38.7308911  70.3279218  49.7273841  32.7600193  65.3564228
  50.2945902  33.2133354  66.0295586  49.1133547  33.5121920  65.2107713
  57.2966771  42.2277211  72.3946474  56.5393472  42.7661591  72.4817939
  58.0207546  42.6732301  72.8184869  13.4345881  20.6065443  17.2843651
  12.9815396  21.1287557  17.9602285  12.9291393  20.7748935  16.4995476
  50.8639071  43.8255537  62.5872072  51.2860484  44.1497394  61.7630151
  49.9211688  43.8576915  62.3777554  50.8513394  38.1749988  74.1262135
  50.6467765  37.4328128  74.6974630  51.4714450  38.6814075  74.7148928
  52.8963443  30.5970770  63.9256742  52.5500678  29.8873372  64.5775175
  53.4054887  31.1092117  64.5716594  61.1583036  37.4043537  69.6646235
  62.0938762  37.5843077  69.7599435  60.9501210  37.4139165  70.6668853
  57.8980790  52.4151753  56.5290632  58.0016398  51.7337627  57.1786417
  57.2496254  52.0335075  55.9024236  45.6355440  41.4067381  75.5116298
  45.5785784  42.3162363  75.1440527  45.5374736  40.8763821  74.7157589
  32.5874559  43.9471599  76.8206060  33.2694000  43.3116274  77.2028304
  32.0385665  44.1155505  77.6269740  43.5841103  31.2316008  67.1552677
  44.1736010  30.5859755  67.5857250  43.6848157  32.0290817  67.7429150
  48.2369445  63.2090677  68.3211631  47.6416116  63.8621769  68.7032432
  48.4107579  62.5723866  69.1008570  48.2139650  48.0111494  70.1548650
  47.6903569  48.0649237  71.0091682  47.5269090  48.3556489  69.5465481
  59.7563833  59.5840179  68.1854936  59.5225732  60.5058497  68.4367583
  60.4972498  59.4175385  68.7638913  59.8626508  53.3112660  60.4625389
  59.9986065  53.0746218  61.4159411  60.2748270  52.5474883  60.0576887
  34.9455149  24.4248202   2.9391647  34.8636183  25.3949799   3.0851462
  35.2972786  24.4254371   2.0312332  30.9310904  27.0231206   3.9365659
  30.8024677  26.7483224   2.9872412  31.5282531  26.3231331   4.2463461
  68.1395786  52.9163972  66.2516367  68.4929343  53.6077148  65.6410546
  67.6505769  52.3828588  65.6020921  13.7919791  28.2362670  13.8370443
  14.7911141  28.3776266  13.8523631  13.7159034  27.7710638  12.9810430
  20.6867570  23.9239467   8.3682016  20.3932181  23.2298274   7.7071418
  21.2740007  23.3832407   8.9286060  57.6596863  67.3318420  63.0109565
  58.0903683  66.6112044  62.6349449  56.8778202  67.4745112  62.4492924
  58.6234842  49.1298477  65.8894645  57.7888222  48.6421652  65.9584065
  58.2997129  50.0525894  65.7706033  43.3290819  56.2644141  67.3668491
  43.7156195  56.3165428  66.4356419  43.7482536  55.4816862  67.7196799
  50.1153969  47.3606438  60.3542976  49.3760420  47.1354748  59.8578959
  50.6635200  46.5430886  60.3614534  52.1376795  51.4322030  67.7878645
  52.8723567  51.1873626  67.1159132  51.8557352  50.4694930  67.8969083
  67.8653997  52.9350474  61.6913911  67.9323742  53.5320484  60.9318432
  68.4557346  53.3422082  62.3578010  65.3358662  49.9401348  59.4347294
  66.2502440  49.6357886  59.1495609  65.2165412  50.6465890  58.8295295
  53.0310749  49.3346706  70.6423227  53.4817485  50.1191988  70.2361096
  52.5032306  49.0286936  69.8967558  55.8666928  57.9264249  66.0509583
  56.6542781  58.2977670  65.5826066  55.2773150  58.7116494  65.8664294
  76.1117073  69.0718804  54.6684635  76.0868205  69.1789260  55.6308600
  75.2641172  68.5715927  54.5435510   2.2395483  64.3999208  46.8217607
   2.8862850  65.0138516  46.4267043   1.7616635  64.8902663  47.4601734
   0.8504739  63.7716987  50.5983988   1.7252286  64.1766946  50.3075017
   0.2825904  64.2723333  49.9377357  62.7190730  67.5052011  52.2601417
  62.0289886  67.0441250  51.6524340  62.4793265  68.4141009  52.0978493
  23.4800240   3.1408388  46.9791131  24.4589594   3.0307171  46.9594006
  23.2359400   3.0476041  46.0903160   0.6729138  67.8581712  47.5893681
   1.6310978  68.0772370  47.7804376   0.3660850  68.8383456  47.5960194
  29.2239604  -1.9074460  56.7664386  29.3977152  -1.1046334  57.2880807
  29.9930673  -1.9722636  56.1709369  19.8243616   2.5115493  43.8222471
  19.2895527   1.9672357  44.3897142  19.2250307   2.6877677  43.0413899
  32.9644764  -0.1379783  53.1993310  32.2552739  -0.5831766  53.7086502
  33.4548870   0.3191725  53.9382796  38.0191728   2.4384602  60.8737267
  37.9304909   1.7068432  60.2333683  38.0130632   1.9109297  61.7181124
  26.7650755  -1.2059130  52.3483988  27.1473675  -2.0261558  52.0316470
  25.7997892  -1.4436771  52.3236325  25.7396898  -0.6792014  47.7511941
  25.6758895  -0.1628678  46.8991617  26.7183084  -0.8042440  47.7570374
  39.1970942  -2.5374668  52.1996636  38.4982847  -3.2214198  52.3129273
  39.4383929  -2.7152203  51.2651890  76.7505106  65.2250796  49.4262374
  77.1711979  64.3190161  49.6423557  75.9283568  64.9122807  49.0661441
  53.4345227  31.3500565  -0.2776976  54.1029988  31.4933664  -0.9111056
  53.6808542  30.6173044   0.2563083  23.0082611   2.0618609  44.3009535
  22.1575929   2.0864079  43.8062436  22.7919266   1.3697338  44.9907724
  17.4217800  -0.3247062  50.1008702  17.4233209   0.2342138  50.8757749
  16.9830965  -1.1589227  50.4043231  17.1148273   0.7484394  52.5578370
  16.4308468   1.3259924  53.0621327  17.0716266  -0.0297671  53.1515259
   8.6344936  69.1606842  61.3962418   8.1896421  68.2857417  61.3649121
   9.2473589  68.9461480  62.1704661  39.1759483  17.9896800  68.1942826
  38.5607311  17.4688594  67.5906614  39.5857655  17.2415596  68.6547900
  31.2716831  12.2761458  54.5905684  31.6426250  12.3644172  55.4995051
  32.0989430  12.3215243  54.0661773  35.9273383  19.6650317  66.7867209
  35.3870710  18.8766871  66.5493584  35.3593675  20.3769341  66.4280306
  18.6980353   7.8307611  50.4461720  18.3589630   8.3165460  49.6464042
  18.0336511   7.1151720  50.5607409  46.0457647  11.1377186  45.8081619
  46.3913574  12.0578612  45.9001533  46.7715061  10.7210834  45.3252290
  34.4862490  14.6809799  65.4103379  33.7245956  14.3347934  65.9342869
  35.1491045  14.7442764  66.1364907  29.5290158  13.6746857  62.6837467
  29.2914678  13.0173159  61.9850956  30.0936605  14.2904381  62.1696214
  19.7452279   2.6198785  57.8052618  19.5866589   3.5336297  57.5021628
  19.0686409   2.6161548  58.5421666  38.4631623  14.2920755  56.9369612
  38.4813363  14.9119850  56.1767265  39.0279133  13.5963026  56.6947196
  37.2772344   9.3365804  58.3268159  36.4499576   9.5975010  58.7789585
  37.0323681   9.4081754  57.4112813  42.5860344  11.0122661  66.7959862
  42.3436175  10.9089760  67.7410864  41.7819945  11.4592977  66.5131273
  30.8360871   6.5870862  49.3182686  30.4398294   6.0722463  48.5796630
  31.2598835   5.8446352  49.8268946  39.2575989   4.7088835  55.5150208
  38.4466354   4.4495741  55.0245517  38.9173128   4.9620749  56.3725593
  28.5979396   1.0889187  56.9753974  28.6120023   0.8427870  56.0133062
  29.5349680   1.4248299  57.0609031  44.6494478  13.2819355  53.7839915
  44.5942407  12.3936576  54.1927505  43.6471336  13.4780228  53.7598349
  49.9754777  37.3238274  -2.2384843  49.7945405  37.7603383  -1.3929146
  50.2674420  36.4492845  -1.9178582  43.7774347   7.6057168  63.4468428
  44.6190381   8.1178457  63.6903460  43.9667291   6.7392200  63.7714177
  47.9602937  50.3692765   3.3781249  48.0045618  51.3626935   3.3963461
  47.5107109  50.1815884   4.2395403  32.3696538   7.8819070  54.5266660
  31.4807882   7.7269449  54.6793715  32.5534545   7.0807198  53.9165974
  36.6036300  21.4276980  51.1843097  37.4541140  21.0478774  50.8481917
  36.9715256  22.1595593  51.7823489  41.9687081   7.7530214  61.3786347
  42.7903660   7.7535277  61.9241255  41.6250886   6.9072692  61.7137285
  38.8885595  17.7500457  51.9297723  39.1702646  17.8230672  51.0370970
  39.6126673  18.2491643  52.3824226  30.1762608   2.9628086  61.4668006
  30.1480190   3.6585956  62.1040315  30.4967806   2.2242546  61.9468977
  47.0768076  13.4445113  59.0011297  46.2454712  13.9694878  58.7778427
  47.5841579  14.1079435  59.5192718  35.9823702   7.2182144  62.2321017
  35.0440353   7.4872647  62.0954520  35.9692177   6.3412960  61.9473693
  41.9249953   7.1557172  66.6237881  41.5203743   6.5829603  65.8855543
  41.0898791   7.2938573  67.1426512  28.8756577  19.1949520  62.9327209
  28.0804657  18.6559783  62.6721229  28.4888786  19.6785260  63.6845748
  55.3129261  48.3550570   2.6957785  56.1569932  48.8029747   2.9530627
  54.8458402  48.4169382   3.5544091  37.0107996  17.4018100  62.3741803
  38.0012466  17.2052198  62.2869839  37.0650185  18.0565231  63.1235248
  44.7063873  11.6728615  65.3213901  45.4627595  11.6845147  65.9105679
  44.0595012  11.0941150  65.8237712  30.3151117   2.4910763  54.3889853
  30.6446642   2.3632349  53.5246615  29.6586509   1.8117157  54.4428643
  40.3558706  15.8026403  69.6646665  40.5986895  15.1054716  70.3214294
  41.2153780  16.0879216  69.3744607  46.5512721  17.9031016  71.2318131
  46.7285482  17.0070906  71.4874040  46.3069760  18.2926088  72.1347720
  42.4632098  21.3130915  59.8208549  43.1978865  20.9850080  60.3965007
  41.6685781  20.9364166  60.1222827  14.2837581   9.9713224  58.6996899
  13.4536076  10.3553151  58.9701646  14.6532918   9.6834734  59.5913079
  44.6300801  14.0344003  57.2311957  44.1104059  14.4828940  56.5170045
  44.6105525  13.1085061  56.8965526  33.4334404   8.1604336  62.4414527
  33.1439468   7.8560362  63.3551594  32.6591308   7.7967585  61.9368141
  36.9968871  21.0198225  73.2492547  36.2128957  20.7185780  72.7969585
  37.2335220  20.2256460  73.7814929  26.0811508   1.4463127  53.1452282
  26.2846739   1.2508012  54.1318698  26.3061339   0.4885264  52.8287462
  33.9397747   2.0542585  54.8475737  34.7761105   1.6896019  55.1984490
  33.6851554   2.6472557  55.5947356  71.6982776  36.8724366   7.0414739
  72.3922268  36.1757272   7.3334039  72.1674306  37.6372802   7.4000773
  46.7908175  17.3906157  50.1654467  46.4874797  18.1247453  50.6531616
  46.5015409  17.6813089  49.2553152  40.4340244  15.3781740  43.2098020
  39.8458635  14.7135042  43.6720801  40.1008394  15.3946701  42.3285936
  46.5768444  13.7709535  67.5962846  46.7674961  12.8916431  67.1399436
  47.2480454  13.7860415  68.2968587  44.7380878  24.4652813  71.7052995
  44.3142396  23.5931398  71.5917574  45.6149054  24.2042174  72.0961123
   9.0152431  64.2397504  55.1605958   8.3091650  63.8187119  55.7023903
   9.3427026  64.9312735  55.7206420  55.6340543  14.1592872  69.3639593
  54.7294999  14.4423860  69.6450666  55.6866915  13.3499109  69.9252466
  12.8363573  69.7547956  62.5506390  12.4256934  70.6589524  62.3216015
  11.9525460  69.2650634  62.7280658  53.0996661   2.3703985  54.8830454
  53.5058264   1.4932447  55.0876978  52.2647863   2.1207261  54.4416848
  36.9855833   1.2497317  52.8761169  37.2964996   1.1170580  51.9512826
  36.9761787   0.3641035  53.1915401  39.9310377  12.7862420  61.2792083
  39.8426453  13.1048182  62.1597867  39.2482314  12.0991065  61.2192444
  42.6926608  21.3643748  56.8404905  42.8202930  22.2433647  56.5471886
  42.7169505  21.4946879  57.8405432  30.2540595   4.8488673  63.4909767
  30.6822505   5.6260631  63.1178186  29.4386162   5.2787581  63.8001323
  50.6876352  20.4779813  66.1073350  50.6713982  19.4953633  65.8224182
  51.6271336  20.5020452  66.4775230  44.7129363   7.5139124  59.9461825
  44.7068663   7.9022610  58.9995196  44.0709539   8.1582085  60.3130414
  34.6304626  25.2085824  70.1093659  35.5517812  24.9554615  70.0662009
  34.5694223  25.7421991  70.9405048  54.6338476   3.4080526  61.0749734
  55.2210001   3.4173146  60.2994914  54.6217859   4.3665745  61.2810291
  28.2379505  13.8240541  49.6183761  28.5982507  13.0557812  50.1444047
  27.7637931  13.3530109  48.8858649  33.8016064  12.4942839  53.4033952
  33.4089290  12.0659996  52.6397491  33.9948897  11.7555689  53.9982799
  30.4207634  17.1402147  51.8383070  30.4468856  16.2151148  52.2569137
  31.3293470  17.3976330  51.9347143  55.0057089  41.9479467   2.9360676
  54.1511107  41.8568456   3.4190240  54.9130487  41.2005642   2.3187701
  34.1127898  21.3119626  60.5322875  33.6711844  21.7361521  59.7915107
  33.3267973  21.2635583  61.1556978  55.2146588   7.5867967  59.2285730
  55.3918565   7.4539644  58.2813953  54.8169239   8.4902505  59.2342905
  47.6444056   7.4452866  70.0206870  47.5898922   7.2038808  69.0540570
  47.1239069   6.6533261  70.3614832  37.1883451   6.3079038  64.9786554
  36.8236530   7.0392601  65.4832203  36.4346972   6.1606600  64.3166525
  35.9602175  16.3535069  60.1605413  36.4494003  15.5227889  60.0670964
  36.4877154  16.8287561  60.8321255  27.4841446   6.0969414  58.6649855
  28.1637687   5.3495620  58.6614085  27.0041100   5.8519067  57.8439785
  10.2697050  66.5197425  61.7606309  11.2003544  66.2703964  61.9315520
   9.7856772  66.0762861  62.4784318  72.9242840  42.9086544   6.4890275
  72.4494192  42.0753801   6.1808803  72.9077745  42.6842059   7.4394442
  33.8098302  14.5124205  69.3225615  34.0325122  14.3953482  70.3235444
  32.9724041  14.9765305  69.4182445  27.8709180  13.9538027  64.7777270
  28.3580507  13.9092215  63.8686282  27.1611793  14.5908386  64.5522733
  46.7615810  16.3226750  57.3998165  46.2097513  15.5777130  57.0814698
  46.4034242  17.0810687  56.9380786  38.0866924  11.4933863  41.9515776
  37.4177340  12.1777817  42.1122349  38.8885612  12.0822333  41.8605636
  45.0727745  24.7155179  57.2788964  44.1136908  24.6054544  57.4758297
  45.2789058  25.4615948  57.8920468  55.8379954  58.6483161  16.2719835
  56.0970216  58.9577175  17.1589049  56.1536224  57.7489849  16.3115521
  54.8151812  33.8927214  -6.0748571  54.5727482  34.6507688  -6.5954127
  54.6342104  33.1380785  -6.6115666  64.7050966  42.3569480   7.0864954
  64.4981688  42.3475868   6.1162850  64.5197504  43.2424973   7.3022735
  36.1762571  12.7094672  56.7278311  36.6034059  11.9094816  56.2931988
  36.9745854  13.3017197  56.6887853  33.6913101  18.5747349  63.3138712
  33.4991294  18.1312111  62.4045414  32.7511890  18.6150033  63.6264765
  36.5128193  17.9383594  55.6665189  35.9488102  18.7212693  55.3998361
  35.9341793  17.3716249  56.1607279  21.6493145   7.3088794  60.5286350
  21.6082625   6.5773511  59.9205371  22.6069710   7.5123345  60.6099036
  46.4970549   8.8196611  73.1661581  46.6001962   7.9359654  72.7577051
  47.3378541   9.2231069  73.0167542  51.2907566  45.7260426   3.8230936
  51.6657359  46.0609726   2.9716144  50.3391719  45.6112459   3.5084425
  31.2385696  18.2160692  59.9729246  31.3194711  17.5713065  59.2668924
  32.0499229  17.9788940  60.5697080  32.6683893   8.0034782  59.1804842
  31.7141900   8.2118382  58.9638500  32.9273371   7.6309722  58.2978149
  57.9537131  12.2416817  58.0447980  58.3046960  11.4414280  58.5508584
  56.9917713  12.1458800  58.2265701  31.0558459  19.0496662  66.7965806
  30.8702198  18.1130669  67.0199501  30.9396628  19.0402646  65.8275015
  36.3603610   6.2381023  55.9958373  35.4477152   6.4735035  56.1424839
  36.5440261   5.5974997  56.7033976  37.6223925  10.1531300  52.9637387
  36.6886548   9.7966717  52.7297602  38.0779326   9.8064697  52.1742911
  42.8110342  15.2632092  55.4391985  42.3316389  14.6177771  54.9185791
  42.3389762  16.0855609  55.2042151  41.1323076  17.5621177  55.6322502
  41.1860658  17.2589372  56.5298838  41.8604811  18.2095231  55.5840651
  35.6562190  20.3109690  62.4680866  34.9344698  19.6453287  62.7431600
  35.2647898  20.5173446  61.5707003  31.1500559  24.5740804  56.2418261
  30.4161989  24.4772662  55.6028184  31.9071522  24.1933176  55.7855019
  40.7593808  23.1668323  71.0615499  40.0515200  22.7252844  70.5164407
  41.4357180  23.3678662  70.4193225  29.5626163   4.0349530  58.9164007
  30.1727575   3.5233032  58.4194691  29.7514236   3.7398234  59.8318538
  36.9708125  12.7473226  63.2723353  36.2395534  13.3312985  62.9761516
  36.4238227  12.2381247  63.9726074  33.5274439  17.2981026  60.9802889
  34.5035087  17.1286358  60.8845230  33.1739609  16.6105814  60.4132539
  22.0615671  71.8278085  40.7522927  21.4153025  71.2752946  41.2255195
  21.5395123  72.6241773  40.5223480  34.1946506  21.7903471  65.7902079
  34.0607056  22.3441285  66.5360436  33.3073926  21.7365871  65.3824342
  44.4278651   6.2963499  55.1233163  43.4509503   6.3652802  55.0203130
  44.5439087   5.4849232  54.5183503  33.1121289  13.4384414  58.5721227
  33.9601301  13.4125392  58.9467661  32.9295023  12.5342640  58.2777497
  42.8094441  12.8698269  60.6967221  43.2505731  12.3547698  61.4021703
  41.9101353  12.9954609  61.0688768  44.8002559  17.4464325  64.3863342
  45.5743843  17.8733861  64.0185502  44.6249498  16.7272516  63.7431910
  56.2254070  31.4675152  -2.5014097  56.3294896  30.5635629  -2.1574037
  57.1378741  31.7793975  -2.4284805  35.0605599  16.6628098  57.5979705
  35.1915362  16.5936440  58.6172091  34.9304862  17.6912030  57.6332690
  39.5897530  10.3850881  59.5006791  39.3120906  10.5216595  60.4116028
  38.7085390  10.1839017  59.0889061  48.4248170  23.0289273  59.3148947
  48.0352965  23.5090041  60.1034200  48.2566806  22.1092667  59.6023270
  42.9184169  15.1684358  59.1147158  42.9694036  14.4110222  59.7327885
  43.2985109  14.7111400  58.2876461  51.6449007  13.8235785  52.2853949
  51.2848227  13.2142964  51.6138331  51.4570656  13.3464532  53.0913560
  31.1905673  12.1387029  64.4881751  30.4988932  12.7407212  64.1862145
  31.6390765  11.9854800  63.6104890  31.4353931  20.5675344  55.4032415
  31.6510674  20.3141991  56.3277877  31.9250606  19.8856856  54.8822016
  29.3655636   5.0457556  52.1647581  30.1519920   4.8657057  51.6595865
  28.8770775   4.2128401  52.0190390  40.5721941   2.2266699  53.8856146
  41.4865097   2.1458009  54.2724404  40.8237618   2.8089507  53.1497348
  26.9967736  22.4003143  68.4676341  27.0754134  22.1924258  69.3992139
  27.8667948  22.7672510  68.2628360  52.1044098  14.1800682  70.0735676
  51.7392227  13.2894016  69.6897690  51.3330369  14.7295010  69.7533322
  62.3458190  47.4933742   7.4753763  61.6886929  47.5395936   8.2331564
  62.3414751  48.4288469   7.2032634  39.6570648  13.6853798  63.9908690
  38.6819635  13.6393484  63.8738393  39.7398407  13.1457442  64.8381938
  12.1371694  47.4108145  16.4360964  11.5517200  48.0804845  16.8424550
  12.8228828  47.3115589  17.1608029  48.1842289  11.5315869  62.6718902
  47.9268204  11.3415236  61.7387828  49.1317861  11.5655514  62.6147824
  39.7124649  17.2551244  72.5112714  38.8322569  16.8932463  72.6058014
  40.2416740  16.4512416  72.1958298  32.1702801  11.3026899  57.0127839
  31.9094682  10.4284236  57.1733809  31.3780765  11.7894597  57.3711168
  20.6702881  14.8633832  61.8893968  21.1179985  14.0922985  61.6093390
  20.1798502  14.6574233  62.6747193  48.1267634  17.4442925  64.1851208
  48.2985236  16.6060117  63.7875663  48.9249776  17.5234897  64.7683797
  41.5279413   0.8016379  59.1771519  41.0808649  -0.0146798  58.8989941
  41.3757363   0.7316905  60.1546667  31.7684772  22.3687655  64.7658663
  31.3348131  23.2050113  64.4816474  31.8739464  21.9368691  63.8937154
  47.7898718  16.2041267  53.5203137  46.9249642  16.3612888  54.0081010
  47.5440635  15.3444337  53.1012120  35.4928154   8.6355561  65.7636788
  35.4062191   9.5025947  65.2815812  34.7145598   8.1935447  65.2993280
  28.5240341  -1.9062271  48.1546295  28.5884756  -1.1964282  47.4861115
  29.2076301  -1.7022660  48.7743043  41.4455704   5.3133521  62.3111827
  41.4792816   4.3666545  62.5753748  40.8249027   5.6276251  63.0336388
  46.2257447   8.9898832  63.6625814  46.7757496   8.2865258  63.2381677
  46.9722166   9.6578292  63.6105205  49.9880833  13.0700549  65.3569288
  50.7073770  12.7554378  64.7433284  49.7329616  12.2758586  65.8095169
  48.0995691  23.2808337  68.5661135  47.7269870  22.3842748  68.5429679
  48.0379830  23.5417274  67.5885085  35.5624280   2.7773512  49.5184512
  35.7642387   3.5397316  48.9707215  35.3516771   3.1949803  50.3901255
  42.6161615   9.1528536  53.6146395  42.7125686   8.7571502  54.5228269
  41.7680517   9.5994466  53.7391533  55.5511181  38.6752781   1.3509674
  55.7289382  37.7391723   1.2197477  56.1409426  39.0900711   0.7238975
  31.4954452  12.6916144  46.5847893  32.2977972  13.0693610  46.1237872
  31.1083465  13.4470120  47.0063951  27.5162538  68.6093778  62.6364303
  27.3499285  68.9052278  63.5587209  27.2959754  69.4440740  62.1759948
  36.4937084   6.6832963  59.1068259  35.9251071   7.2777828  59.7250146
  36.5987972   7.4028097  58.4176842  22.2735562  16.5349609  57.7751337
  21.4807615  17.0658637  57.6720931  22.8497535  17.1175510  58.2975507
  30.6107891  16.2977503  66.3495460  31.3366193  15.6476053  66.5972329
  29.8265719  15.7509690  66.6485504  47.9466100  10.1714937  57.1933681
  47.9189424   9.1957447  57.1705192  48.1372611  10.3874352  56.2503777
  44.7941091  16.6987633  60.1004890  44.8441123  16.0713739  60.9180733
  44.1677160  16.1592048  59.5531272  37.5553915  19.7995879  60.6020354
  36.9019046  19.8460505  61.3306838  37.0821963  19.3609966  59.8985736
  37.5438585  18.1277464  47.9571499  36.8744654  17.4867754  47.6520388
  38.1299688  17.6017773  48.4759755  49.8886966  13.9660794  55.5716918
  49.7539382  14.3584115  54.6856022  49.0344556  13.5780946  55.7964548
  42.1090268  10.3228649  62.5032885  41.9642464  10.1045011  63.4413728
  41.7021559   9.5487615  62.1010557  51.8353541  21.0441490  58.6310463
  52.3534881  20.4212178  58.1278938  52.1634558  21.9171197  58.3452509
  42.3031661  24.5841692  73.0773658  41.7394168  24.3505771  72.3302453
  43.1816692  24.4355676  72.7753587  41.0960066   9.5710056  50.0845530
  41.9506195   9.3836498  50.4904468  41.3974877  10.3074412  49.5052666
  27.4215499   2.5633853  61.1064634  27.3622931   1.6697402  61.5097369
  28.3683072   2.7890782  61.2464284  37.1574238   3.3336691  54.5264613
  37.2549502   2.7555576  53.7546920  36.6906095   2.5991689  55.1271438
  43.5847325  17.1977411  71.4263032  43.7965684  16.3548751  70.9854565
  43.6157901  16.9348728  72.3534129  40.1106521  12.2675774  56.3690065
  40.7699218  11.8915846  56.9959185  40.2391462  11.6735108  55.5886272
  48.3598304   6.6783355  57.1509520  47.4282428   6.8741541  56.8481656
  48.2866822   5.7850305  57.4898907  48.7599195  26.8184394  65.8094370
  48.0704833  27.1924405  65.1744245  48.2924024  25.8907238  65.8950294
  51.3231028  18.1445727  69.7951106  50.4290087  18.4236736  70.1026151
  51.7136970  17.9355709  70.7273897  59.7953764  15.7711722  70.2013566
  59.2054780  15.0723255  69.8134335  60.2736311  16.0148348  69.3528057
  49.6406794  17.8147962  54.1499041  49.0365718  17.1049800  53.8331760
  49.6695624  17.5489558  55.1171893  36.5729162  21.9527790  64.3264548
  35.8754680  22.2124070  64.9813144  36.1263352  21.2804940  63.7885925
  54.0438002  18.0382724  74.8804068  54.6766504  17.5563611  75.3543466
  53.5622277  18.5338807  75.5284409  45.9977449  26.3985965  59.4156565
  45.6668921  27.2819033  59.6114940  46.8393761  26.6578248  58.9717405
  45.9993668  19.0237868  73.4859422  45.0831377  18.7764954  73.6811102
  45.9924934  19.9519753  73.7712112  53.1407832  12.8619684  60.3341297
  53.6296765  13.2809714  61.1010221  52.2247650  13.1881468  60.5685839
  42.7080485  24.6990464  69.5924115  43.5651797  24.3104062  69.9467778
  43.0666250  25.5038524  69.1968229  10.5937627  57.6792942  11.2790084
   9.8122173  58.1865666  11.0368318  11.3150256  58.1820042  10.8736127
  53.9928179  14.3376516  62.4009550  54.6908162  14.1812954  63.0301569
  54.0770927  15.2442291  62.1982496  40.1172017  20.5489467  61.1221816
  39.1473634  20.5537719  61.0152381  40.2390539  20.0771129  61.8995452
  35.8083423  24.8603829  66.9313155  36.3524094  24.9989369  66.0692917
  36.4580888  24.3585862  67.4345485  58.5208245  31.1812404  63.8550509
  58.0073923  30.3564088  64.1106589  59.0977437  30.7279370  63.1512719
  39.9993579  17.1706877  62.2671915  40.3370392  16.3203078  62.5510799
  40.6686869  17.3652967  61.5672947  62.2509171  39.9196182  62.3182090
  61.4490289  40.3780938  62.2980078  62.0079964  39.0648476  61.8864267
  48.6813228  25.4632247  63.2213149  48.3435406  25.0022529  64.0062518
  49.4641988  24.8628629  63.0174408  41.0732257  24.5534139  76.1895993
  40.1849346  24.2025005  76.4107893  41.0698509  24.5759745  75.2171046
  49.4673806  34.7674690  70.3114497  49.4670451  35.7460110  70.2321124
  49.1416873  34.7163777  71.2256972  53.9782203  30.8514603  73.4551139
  54.6782865  30.4105420  73.9857152  53.3782800  31.1363044  74.1709832
  48.3764449  10.0590898  70.4986246  48.5928125   9.6235493  71.3873001
  48.0532601   9.2280191  70.0594106  34.4124001  14.6522742  55.8760407
  34.9505242  13.9084815  56.1359036  34.5810051  15.2845595  56.6862880
  40.2440062  16.3716271  58.4465752  40.7455265  15.6635652  58.8888275
  40.0255028  15.9547710  57.6281844  43.8036304  -0.0301520  62.0780418
  44.2477559  -0.1422513  62.9305340  44.4854701  -0.3213552  61.4556285
  46.4343008  24.5013671  50.3582675  45.9569735  25.4113166  50.3313036
  45.6420748  24.0635437  50.8086005  52.6907020  24.8502332  64.1385979
  52.1192623  24.5347398  63.4039773  52.3812946  24.2077996  64.8562726
  45.0070979  22.4149798  61.2364904  45.9155200  22.8036771  61.3267867
  44.4793421  23.2172395  61.5508849  53.0525346  11.8972786  54.7350706
  53.8636445  11.7906442  55.2006609  52.3863789  11.8297321  55.4256024
  14.3117387  43.6953978   2.5896364  15.2309039  43.8669788   2.2289645
  14.4217494  44.2351992   3.4151771  42.5022187  15.9389973  67.7656798
  42.8386194  16.8610515  67.5618027  43.1127503  15.4331580  67.1683564
  55.0646026  10.9913744  68.1046213  54.4652706  10.3712281  68.6368468
  55.6958295  11.2430119  68.7999548  49.7674505  14.7570907  73.8135275
  49.0246286  14.7953022  74.3769754  49.4395087  14.3253855  73.0098172
  51.9661499  25.5721249  58.0869919  52.2062520  24.6496780  58.3188922
  52.7065428  26.0827529  58.3903559  47.5567193  32.1843886  78.1218309
  46.7371324  32.0699459  77.6652578  47.8834118  31.2991242  78.2181849
  37.0840402  18.9579226  70.0516966  37.7457845  18.6299373  69.3875147
  36.4836327  18.1679680  70.1030593  40.2142466  24.5994313  62.5911081
  40.0644645  24.3689614  61.6306932  40.0458855  23.7263977  62.9741299
  53.6956314  34.9090900  68.4134944  54.3607607  34.3886110  68.8957248
  53.6105931  35.7539724  68.8706169  33.3308795  25.4864866  67.6431184
  34.2278918  25.3335686  67.2695053  33.5846829  25.4650158  68.6238692
  41.2141548  29.4076980  71.2846674  42.0344560  29.2234379  70.6784981
  41.1730636  30.4233192  71.0954855  44.1942200  28.0745361  75.8746531
  43.5457462  27.5564681  75.4327330  44.2232894  28.9321805  75.4093579
  44.7038603  27.1119069  71.9467838  44.8661262  26.1282103  71.8338439
  45.2427319  27.1859578  72.7804322  41.6484949  20.7249801  50.3730273
  42.2517706  21.4361175  50.6280438  42.1718647  20.1361450  49.8225084
  50.9909662  26.1451380  66.9426679  51.1963491  25.2524883  66.5797927
  50.1836297  26.3578641  66.3836881  63.6687660  53.3385998   9.1913254
  63.3248810  53.2884006  10.1427557  63.8231670  52.3478337   9.0779207
  46.3553524  28.0524120  62.1736860  45.7799711  28.3217280  61.3830983
  45.9215921  27.2512648  62.3938824  54.3276520  26.7114726  58.7205576
  54.1900402  26.5697283  59.7080892  54.8184896  27.5591083  58.7601003
  52.4256145  40.7154298  74.2057509  52.2589210  40.8524103  73.2684933
  53.3312187  41.0782688  74.3067625  40.0226572  24.1652422  65.4650553
  40.8459726  24.6822167  65.3576213  40.1087051  23.6126940  64.6721426
  51.0022166  17.9106591  65.3711050  50.7893100  17.1380176  65.9126466
  51.4851394  17.4400948  64.6227629  51.4092517  11.0355477  72.1977246
  51.2618845  11.7082449  71.5109094  52.2780065  10.6312790  71.9668304
  40.5761728  20.2161544  67.9019162  41.3019381  19.9420725  68.5295757
  39.9881198  19.3950176  68.0117784  42.5620690  18.9777679  69.7708898
  41.9664589  19.3413085  70.4857300  42.9630966  18.2732043  70.2749214
  40.7519868  19.8221056  71.8088033  39.9483494  20.3764878  71.7393760
  40.3149274  18.9227214  71.8570354  49.4350153   9.2212904  72.8117187
  50.0140024  10.0009672  72.6397909  49.7713323   8.9228721  73.6669233
  74.6622079  64.3195134  24.9610872  74.9234899  65.1108127  24.4175520
  75.2161410  64.3900490  25.7539276  42.1846859  22.6363546  63.1393308
  41.3672349  22.0956240  63.2023666  42.5325456  22.5416101  64.0248468
  41.2197781  16.8589688  64.9842166  41.7958128  17.3835913  65.5594281
  40.7374323  16.2947075  65.5816328  45.6344319  23.6579272  64.3945497
  44.7943237  23.8746080  64.8993531  45.4796835  22.6909053  64.2376873
  40.0945035  22.8703151  68.3425819  40.4892974  23.2538401  67.5325386
  40.3457937  21.9345020  68.1542266  41.0780567  23.7530688  59.8697091
  41.5518908  22.9641505  59.9703717  41.3998510  24.0408214  58.9756588
  51.8082730  23.1215655  65.8699462  51.2242276  22.3775430  66.0930483
  52.1528685  23.3577416  66.7882359  33.6778357  22.6835458  70.4631417
  34.1877204  22.1709015  69.7397858  33.8779024  23.6151022  70.0789722
  39.2187179  15.4960872  48.1743148  39.1951482  14.5709488  48.1621701
  38.2324374  15.6963981  48.0793276  41.8176563   5.8983814  54.7169495
  41.9373816   5.9298019  53.7387783  41.0389872   5.3619956  54.8204224
  62.4328177  22.2234386  63.7003149  62.3117710  22.4156798  64.6434595
  63.2741855  21.8150189  63.6370206  37.0403196  24.3798336  71.5373958
  36.5530433  24.3309327  72.4244122  37.9356835  24.1145688  71.8814922
  38.4373236  21.4491855  71.0070099  37.7315024  21.6019882  71.6528674
  37.9828831  20.7430743  70.4677774  48.7782730  35.9764136  80.9589439
  49.1188134  35.8478566  81.8630326  48.2800291  35.1126130  80.8824906
  53.2162801  31.7122702  81.2631588  52.8640927  30.9395413  80.6995532
  52.3637698  32.2081229  81.3337707  45.5261555  14.6593012  75.2316247
  45.8573562  13.7576326  75.0122100  46.2865025  15.1473611  75.4914085
  50.4632430  21.6767921  74.0507679  51.0030378  20.9316169  74.2141143
  49.9927126  21.8840859  74.8540689  51.6895819  29.6597546  77.1443996
  51.8709363  29.3848049  76.2392131  51.1409165  30.4635413  77.0282347
  49.8680911  30.1582323  66.2472803  50.2141854  30.5907897  67.0913490
  49.5382569  31.0151214  65.8159429  39.7237151  27.3426078  72.1445298
  40.3051132  28.0390542  71.7314652  39.6165373  26.7085318  71.3842877
  50.2618079  31.3685084  68.6564255  50.7704651  30.7580849  69.1729636
  50.9351498  32.0600806  68.4602718  51.8287960  19.0671446  54.5833283
  50.8816743  18.7422435  54.5411695  51.9680196  19.1795232  55.4982695
  50.9882946  17.0863925  72.8896241  50.4741310  17.7274692  73.4011838
  50.5871019  16.2662218  73.1004184  49.5383595  15.6954040  66.4444525
  49.4746882  14.7800863  66.0938021  48.6055232  15.9032345  66.6143063
  47.4893117  33.7478496  73.0245669  46.6388451  33.2697726  73.1327983
  48.1511954  33.0843166  73.0957686  60.1989230  21.3591256  71.0121383
  60.6171083  20.5477408  71.3339254  59.2763752  21.2643421  71.2700425
  38.0264601  79.7261321  60.3092738  37.0391485  79.9381117  60.1844145
  37.8593638  78.7532612  60.5733424  68.9310449  27.1516708  57.1174139
  69.2840044  27.6146272  56.3372037  69.4155551  27.6579655  57.8263855
  62.7557521  16.7744330  61.0770470  63.1235300  17.2364446  61.8676090
  63.1330261  15.8866755  61.1997107  52.3428628  42.7586125  69.0801242
  52.4054809  42.0521204  69.7871949  52.0340161  42.2351114  68.2899860
  52.2332893  14.9529099  56.6189235  52.4293122  15.5882753  55.8999163
  51.4256883  14.5426264  56.2800182  55.4053354  15.9314940  49.3098193
  55.0537847  15.0966969  48.8905454  55.5647798  16.4556175  48.5413511
  63.0263792  59.8477932  15.4859237  63.2644337  60.7957934  15.5895616
  63.6758873  59.4969595  16.1472740  43.1277165  18.4116660  49.5183089
  43.6582563  18.0533586  48.8010614  43.5159073  17.9451546  50.3091559
  52.6212438  18.3129197  47.3395543  52.4072944  17.4442865  47.7018958
  52.5918888  18.9004318  48.1220878  37.5926588  25.2439787  65.0869602
  37.4463989  25.1828263  64.1330740  38.3944955  24.6947437  65.1744925
  46.6959398  30.6908715  71.0602747  47.2731114  31.3060923  70.5576192
  46.4290944  31.2956959  71.7984198  48.2358297  19.9739634  60.5251257
  47.6751252  19.1506009  60.5540142  48.4942064  20.0329145  61.4640551
  58.3237353  14.5922186  63.4698161  58.8740218  15.1882371  62.8558968
  58.7101823  14.8321686  64.3174279  56.0494500  24.3005812  59.9578082
  56.2883712  24.3052038  59.0357975  56.5778507  25.0839971  60.2669571
  49.3839321  21.7701932  56.9397595  48.7579084  22.0957231  57.5860246
  49.5271184  20.8326382  57.2526566  54.6718937  16.6400269  61.0180827
  54.8345909  16.0337836  60.2691989  55.3631918  17.3411481  60.8076189
  61.9248633  23.2484790  61.2576670  60.9750341  23.0185835  61.1384199
  62.0662738  22.6478681  62.0673174  50.7512361  56.2293582  12.6121120
  49.8662197  56.1883112  12.2057111  51.3112876  55.8415111  11.9097903
  71.8795166  56.6926045  14.9958929  71.3010446  57.2236314  14.3451990
  71.7318238  55.8463694  14.5959543  46.9224788  24.1462818  55.6275562
  47.7507435  24.2735482  56.1770245  46.2447480  24.3398606  56.3206291
  44.8605469  16.7935018  54.4134684  44.4128093  15.9570993  54.6182681
  44.4658759  17.2982401  55.2040056  68.2254560  38.1249626   8.9412022
  68.6016182  37.2008198   8.9807775  67.2977067  37.9680087   8.8985738
  57.3223934  32.6891392  61.0982004  56.7351741  32.9808413  60.3989660
  56.6879353  32.6560332  61.8249520  61.7551173  44.0200254  72.9152625
  60.7596499  44.0524557  73.1610074  62.0807797  44.4721196  73.7880437
  30.6066564   8.8594269  14.2060572  29.7197354   9.2997580  14.3641649
  31.0674895   9.6533475  13.8573073  45.2183183  31.2081454  65.0514506
  44.4390282  31.1874541  65.6411751  44.7928670  31.4763455  64.2088990
  52.6167721  44.4477606  64.6609604  53.5019777  44.4731636  64.3063158
  52.0757379  44.2384768  63.9243008  62.8345325  44.1218640  57.0416651
  62.4471905  43.2996889  57.5518378  63.5453929  44.3171677  57.6660311
  67.6010640  37.5652448  65.1664851  68.5034496  37.5969255  64.6405421
  67.0814726  38.1878143  64.6786518  35.8196704   6.9590821  18.6664554
  35.9112834   5.9691496  18.6724781  36.7513081   7.1251482  18.9017261
  64.6413967  28.7690633  61.7661370  64.9226114  27.8355563  61.5067693
  64.4663844  29.0838558  60.8064205  54.8698157  47.0399798  77.4053315
  55.2720416  47.9019407  77.1420098  54.2363145  46.9438189  76.6471433
  77.4341314  28.7400225  51.2559100  76.7507020  29.3055885  50.8510771
  77.2031704  27.8762909  50.9807004  53.2538594  46.6061594  75.1904693
  52.3392317  46.8640695  75.5543033  53.4557618  47.3319466  74.5851559
  38.6687145  12.5737715   7.8574426  38.7630752  11.7613138   8.4402235
  39.0989435  12.1452229   7.0654553  65.7178585  36.4639165  72.5475485
  66.6824289  36.4509264  72.4390831  65.4145455  36.4256861  71.6000959
  63.9911863  44.7062183  65.6050182  64.1430295  45.2804160  64.8234845
  62.9997496  44.6071680  65.5303011  62.7370046  33.2997166  73.1016631
  61.8584461  33.6923997  73.1742069  62.5472222  32.4004874  73.4184630
  57.9854073  40.7740479  65.8280265  58.7038016  41.4471323  66.0551510
  57.4457242  41.3111327  65.2365662  62.7019987  41.0316883  66.8849640
  63.3031249  40.3214142  67.3297172  62.9176236  40.8037403  65.9277237
  43.3888262  28.2639169  63.7849992  43.9602610  27.5035637  63.5299024
  42.5019113  27.9045021  63.6051886  45.3554020  30.0576994  68.8817808
  45.8350589  30.3942836  69.7093208  46.1087819  29.7781354  68.3515365
  60.6756492  53.1126401  64.0787426  61.4478083  52.5659618  64.0083858
  61.0244967  53.9889799  64.3017305  54.9037262  46.3581794  72.5313173
  54.3116380  46.2464320  71.7749957  54.7803017  47.3605456  72.6076289
  72.1092342  39.2651984  55.6979303  72.0160513  40.1488365  55.4316177
  73.0399827  38.9992127  55.5797469  54.2922136  34.2291927  74.6937786
  53.8616917  33.7949228  75.4679716  55.1274147  33.7304355  74.6558088
  53.0618371  36.2769838  78.1056713  53.3924033  36.9578096  78.7114742
  52.1005429  36.4298529  78.1803971  45.0951040  43.8990109  82.2141651
  44.4006799  44.4729008  82.4735778  45.9224929  44.4868052  82.3744472
  61.3249346  58.5430932  59.5269338  60.7907222  58.8595245  58.7303078
  61.0067649  57.6279327  59.6107703  62.0011180  28.5253898  60.7801003
  62.7819449  28.8284407  61.3366456  62.2032717  27.5670927  60.7773382
  55.3943283  36.4667738  66.2078235  55.9838280  36.3056987  66.9882729
  54.7736111  35.7453208  66.2842976  50.2200198  34.7452884  73.2155374
  51.0130418  35.2003596  72.8037716  50.3231105  35.0304599  74.1355453
  57.6682574  35.7350436  59.3036958  57.6232936  35.8027118  60.3201953
  58.6629118  35.7994427  59.2159144  49.3361921  24.7585800  57.2070891
  49.3512604  24.0210813  57.8733948  50.2471105  25.0432797  57.2484227
  64.6348185  34.7661173  52.4906644  64.4285829  35.0968081  51.6307267
  64.2456503  35.4709163  53.0786806  59.2019456  38.0529129  65.6662410
  58.6336455  38.8155640  65.3325917  59.2989468  38.4206671  66.6222525
  72.8707836  30.2057716  70.1708030  72.3137419  29.5984289  70.6576856
  72.8518897  30.9402409  70.8400354  63.4196839  42.6330206  62.9729035
  62.5463026  42.9044717  62.8483795  63.3629055  41.8860091  63.5850229
  52.1140043  27.6527143  62.8929253  51.3659797  28.0687507  62.4539035
  51.9742689  27.8873296  63.8358376  74.9821665  48.2027083  60.2591369
  74.6993901  47.6314938  59.5250366  75.9140680  48.4468347  59.9679968
  49.0053955  27.9489362  62.1959276  48.9825153  27.0241023  62.5655775
  48.0829783  28.1271207  62.0499189  66.4005151  47.7479386  67.3145218
  65.6075253  47.9569530  67.8052734  66.3388713  46.7928202  67.2544059
  70.1399763  27.9970984  59.3330984  69.8613992  28.0144561  60.2546024
  70.9250409  28.4926536  59.2772379  62.4085828  32.7008494  64.1419695
  62.9241204  33.4140818  64.5141460  61.5099697  33.0950111  64.2359674
  53.3185481  40.8243964  70.8675056  54.0574646  40.2776219  70.5718532
  52.6152312  40.1768219  71.0178363  60.3334671  55.8299921  54.5285933
  60.0372972  55.0369802  54.0306540  59.7374200  55.8245444  55.2873206
  58.8490764  44.0312091  63.5323873  58.6331356  43.0933638  63.5969923
  59.2112660  44.0827991  62.6160808  48.1860243  42.4877464  66.6629455
  48.2380580  41.5364367  66.9348866  47.9115168  42.3493736  65.7467327
  68.3897765  43.9021445  67.4664776  67.5660023  44.3588649  67.6027933
  68.0192149  43.0548196  67.2227688  56.9688927  37.8170451  73.4422132
  56.1065030  37.6242667  73.8764911  57.4751013  37.8788855  74.3081352
  63.0183668  51.6401027  63.7823142  63.2044844  51.3802314  64.7304754
  63.9403640  51.5932766  63.3899575  44.6085286  46.4240086  77.8363525
  45.1925655  45.6619940  77.7420423  44.8210595  46.6608870  78.7685946
  55.4666596  44.6236622  63.5962383  56.0087519  44.5882836  62.7629577
  56.0504099  45.1097888  64.1441146  64.7026671  42.3534987  49.4831939
  64.5111589  41.4662963  49.2792076  64.9357987  42.3277212  50.4463171
  64.0033646  31.8216499  60.2665587  63.1793476  31.6655787  60.7472923
  64.2276073  30.9795824  59.8194090  64.6804294  39.1894520  67.7459827
  64.6163850  38.4325608  67.0667490  65.6078687  39.2377686  67.9021081
  60.0439591  51.4563677  68.4502317  59.4614966  51.6275316  67.6656920
  59.8467618  50.5299182  68.6351446  49.6351646  50.5955268  56.0993158
  50.3046526  49.8598167  56.1234120  49.4253617  50.6054636  57.0816920
  32.4613540   4.7572368  17.1639544  31.9016139   4.0184034  16.8156471
  31.9309924   5.4886873  16.7804220  61.2131608  50.2245644  62.3944428
  61.8091555  50.0072643  61.6456383  61.7497796  50.8922200  62.8560610
  68.0267924  46.3885967  72.4065948  67.3404704  46.4904343  71.7211443
  67.7341988  45.6443037  72.9422959  56.7255160  44.5785607  61.2265854
  57.2629586  43.9721340  60.6639682  57.3564268  45.3700292  61.2479686
  57.5232236  39.8997736  62.5861545  57.1564887  38.9396406  62.7507040
  56.9163515  40.3796039  63.1924721  65.2810872  52.2491389  62.4892057
  64.7429651  52.7329895  61.8412607  66.1904701  52.4169678  62.2478883
  15.8609578  10.9957460  22.4108492  15.7324524  11.9784187  22.3189561
  15.3348843  10.6501048  21.6835816  67.4131318  49.9373975  61.4456231
  66.6028519  49.8822691  60.8483905  67.2962612  50.8985290  61.6039523
  50.6536467  27.5347892  59.8038564  49.9139253  27.1572174  60.2552712
  51.0726143  26.8195496  59.3278523  58.9680138  27.1470135  64.7111267
  58.4057549  27.8848055  64.7361115  58.5103798  26.6255958  63.9822611
  66.0189103  47.5930416  62.4054393  66.4757742  48.3403143  62.0347232
  65.7891636  47.0264424  61.6449236  55.9446629  50.8086447  55.3284614
  55.2703750  51.4492881  55.5157861  55.4477593  49.9437945  55.4974523
  54.8919003  39.0969202  69.6751765  55.3760500  39.0772760  68.7976935
  55.6615244  39.3007175  70.2632338  51.0605167  54.9986980  59.3181526
  50.7349318  55.4394022  58.4741490  51.2107339  54.0744829  58.9619834
  50.0707475  36.1017613  66.0811782  50.9735422  35.7513287  65.9373347
  50.2017803  36.2693173  67.0755544  62.5472416  46.9878148  61.6235053
  63.0140284  47.7907375  61.2266875  62.6082110  46.3624124  60.9780444
  59.4622220  39.5410647  72.1029121  60.0003133  39.7286633  71.2937264
  58.6103648  39.8696589  71.8782755  56.5507529  37.6878023  64.1478196
  56.2633383  37.3393582  65.0668025  55.7079898  37.5104418  63.6830899
  63.6431832  40.2641196  64.5684561  63.2229324  39.9368322  63.7455862
  63.8439999  39.4193497  65.0419001  52.0080887  44.0460461  72.2779790
  52.2420437  44.8030385  71.7059559  51.0256760  43.9832043  72.1026084
  51.9601650  33.0097437  67.4710084  52.5251536  32.6563129  66.7471589
  52.5294188  33.6729119  67.8551124  17.5964096  58.4531957   9.7816783
  17.0672169  59.1649990  10.2242856  17.8074878  57.9126934  10.5796377
  63.9799735  33.1933203  70.8093058  64.2411145  32.2727652  70.9508032
  63.6283929  33.3552160  71.7655704  61.1868614  42.1289578  58.1964551
  60.9363559  41.8414274  59.0446018  60.8588829  41.5617597  57.5048778
  55.8715317  33.9130806  70.1455861  56.1270996  34.0783566  71.1272395
  56.1686935  33.0148492  70.1199594  67.8113035  42.7625071  62.3464681
  68.2656075  43.5555038  62.1619915  67.5652787  42.8272126  63.3094846
  64.7788771  47.2462710  50.8168106  65.1433296  48.0193255  50.3363781
  64.3035012  46.7716394  50.0869993  65.7271854  40.8229548  51.9755653
  64.9619848  40.2890448  51.8238475  65.4189846  41.5473100  52.5829078
  62.2943108  36.5509754  67.2788528  61.6904273  36.8096243  68.0266122
  62.5659491  35.7082635  67.6320739  62.4831168  55.1477274  57.8813578
  62.9272161  54.9996760  57.0137600  61.6749269  54.5824448  57.7630520
  51.3708093  50.6818118  63.9195315  51.3437241  50.0721611  64.6907851
  51.4442845  50.0194126  63.1741168  65.9189752  44.9073522  67.8171028
  65.1728842  44.5643497  68.3764686  65.3372236  44.9333508  66.9701037
  53.6635793  15.3406494  78.9993619  53.4804541  14.4047470  78.8801878
  52.8906673  15.7839376  78.5524628  53.9057712  40.6004645  64.1611221
  54.1572535  40.2080647  65.0044205  52.9553988  40.5776198  64.1597688
  57.9228475  47.5056872  76.4042778  58.2427978  48.2593935  76.9607863
  58.0232865  47.9445517  75.5466980  69.0070092  45.4539781  61.5040879
  69.9224528  45.3536225  61.2238742  68.9994130  46.4481017  61.6128114
  56.5557102  33.1122276  66.4428226  57.2364755  33.7582135  66.1523626
  57.0483107  32.5919287  67.1094341  51.8543360  28.6354525  65.3549383
  51.7724194  27.8899260  66.0141262  51.0939319  29.1575358  65.6900207
  58.1774831  31.4486591  68.1740644  58.3855561  31.1013051  69.0851993
  59.0973417  31.4510765  67.8285978  56.1754521  42.0294460  64.2476029
  55.8567193  42.9268160  64.2088119  55.3321487  41.5184619  64.3002390
  59.8470144  29.3292002  62.0730152  60.6762111  29.1249636  61.5273187
  59.2266401  28.7007199  61.6992703  74.4421144  44.2491978  63.7274516
  74.3685773  44.2495760  64.7270171  75.4626535  44.2614675  63.6125246
  54.9984998  42.7765501  54.2016330  55.3749923  42.3014319  55.0109354
  54.1266525  42.9406776  54.5167509  53.6063434  36.6326758  62.9953912
  53.5687447  35.9276082  63.6889830  53.0451946  36.2082321  62.3216850
  59.8636179  33.7271036  64.6826114  59.2463395  32.9929860  64.5195566
  59.2047991  34.4033335  65.0093574  58.3543053  39.6765043  59.9456859
  58.2204720  39.9117864  60.8922387  57.5539241  39.1305484  59.7975348
  70.4779032  31.3048037  67.2428299  70.7342589  31.3082621  66.2417324
  69.7182259  31.9344211  67.1437461  67.7636415  32.3847346  71.1015514
  68.6730752  32.2544290  70.6859611  67.4738192  33.1075611  70.4744884
  53.9844183  45.4120505  67.0039142  53.5369138  44.9075645  66.3377293
  53.5468194  46.2894124  66.9518496  58.9377645  38.0404101  68.4946876
  58.3789317  37.8003410  69.2979454  59.7216155  37.5292693  68.8099113
  55.9594202  38.3814560  59.5521566  55.4678256  37.5995163  59.3998501
  55.6812367  38.6758040  60.4522091  56.5970800  32.0286918  79.0769814
  56.0151182  31.3407741  78.6242879  56.2828910  31.9838614  79.9501311
  43.5757381  41.7938469  71.2470713  43.7748789  41.0058947  70.6716446
  42.6202866  41.6782724  71.3660614  54.5106175  55.5671949  65.4367281
  55.2482646  56.2284237  65.6361285  53.7919952  56.1580495  65.7531414
  68.3446300  39.3736055  59.1678197  68.7830689  39.5427472  58.3063875
  68.8053475  40.1430683  59.6603192  74.4756264  32.1865882  65.7985561
  74.9591862  32.8909016  66.2763535  74.1314859  31.7007697  66.5571558
  47.2811471  39.7091010  66.9695428  47.5653658  39.4031933  66.0715983
  46.4184651  39.3110441  67.0477638  62.6977225  31.5555373  68.4251637
  63.2458648  31.3043360  67.6861195  63.1509369  31.1070307  69.1814874
   2.8884390  43.2816469  59.9705984   1.9529850  43.6306128  59.7632654
   3.1608223  44.1423967  60.4156724  47.0769830  46.6053538  67.4746282
  46.8511257  46.9505807  66.5875242  46.7022072  47.3619801  68.0295382
  66.2386112  52.7718088  49.8940956  66.3449941  53.7526037  49.8188725
  65.5745410  52.5842243  49.2271905  55.1602480  41.7240298  75.4997399
  56.1382329  41.8805937  75.7042718  55.1906777  42.0112176  74.5558847
  32.0205708   1.3912015  19.9286333  32.6381668   2.1516806  20.1258262
  31.9127176   1.5379142  18.9319226  60.0474246  48.3363458  68.6725083
  59.2226229  47.9613613  69.0700093  60.0856271  47.9380283  67.8354925
  43.8836090  46.6043289  75.1312076  44.8426492  46.4687128  74.8951460
  43.9338882  46.2500517  76.0331145  63.0515075  50.8554557  57.4321169
  63.3850673  49.9535803  57.1573341  62.3566692  51.0012438  56.7942659
  72.7777649  46.6512565  67.6960270  72.5629882  47.2219668  66.9273731
  72.1289915  45.9062718  67.6097822  74.5902688  57.3448283  52.0301173
  74.4632013  57.5926113  52.9578686  74.5883416  56.3425076  52.1958172
  66.2730456  51.1515212  65.0281820  65.9831938  51.5798077  64.2359377
  65.5671351  51.1253482  65.6624651  59.1002546  59.6182945  45.9409312
  59.1870418  59.6044357  46.8857115  58.6024623  58.7652318  45.7578728
  70.1764824  60.2007588  51.4873985  71.0907180  59.8772737  51.7153168
  69.6972228  59.3368202  51.3420877  74.3418477  48.8769436  62.8334810
  74.3054415  48.4832264  61.8843150  75.1259819  49.4520224  62.7613970
  61.3023626  47.6196265  41.2081332  60.9942708  48.0250987  42.0514448
  61.7701976  48.4121276  40.8273236   2.0064865  51.8780578  64.6070255
   1.8655479  52.5095858  63.9219699   1.8100863  52.4437413  65.4061780
  64.5323153  61.6009059  59.6699760  63.7273693  61.2124001  59.2451757
  64.0502485  62.4608347  59.9616350  77.1517583  55.5660488  60.1393571
  77.0792932  56.5387447  60.3448187  77.5127471  55.2397921  60.9686155
  68.0358599  56.5567483  54.0468706  67.2206810  57.0101344  53.9458129
  67.7141865  55.6616663  54.3214292  65.2621729  44.9566667  72.9535566
  64.5085037  44.6213583  72.4108633  65.1413681  44.4426843  73.7695194
  67.3469477  39.6759778  68.3031560  67.3831257  40.4493133  67.7392499
  68.1176693  39.8704917  68.9053151   3.5456646  49.7200824  64.8670804
   2.7198417  50.2841206  64.8716267   3.7781404  49.7431062  65.8334996
  63.3512683  45.7822296  49.1380772  62.5233540  46.2736573  48.8139139
  62.8900820  44.9847314  49.4308797  73.3473848  50.4651586  59.6013973
  73.5077450  49.6295210  59.9489718  73.9633492  51.0667610  59.9425082
  69.9031566  56.9036459  41.4848249  70.6136264  56.2094614  41.6101004
  69.9861850  56.9411070  40.4655564  66.7715361  43.6980820  64.8230568
  66.9098064  44.6396587  64.6671930  65.8368151  43.7198282  65.1443984
  41.2432991  28.8568770  -1.9900525  41.9763597  28.6691906  -2.6730369
  41.3853617  29.8383912  -1.8977937  72.6237225  47.9556249  65.2000978
  73.1829584  48.2207012  64.4443694  71.7937597  48.4222434  64.9631351
  67.5580804  49.8128201  54.5232410  66.9225569  50.3142492  55.0179879
  67.3020470  50.0142403  53.6070615  63.1105371  40.4363179  78.4219523
  62.5646402  41.1800305  78.1471436  62.4968682  39.7781789  78.7132576
  72.1654523  58.2847190  56.3419626  71.3490266  57.7686860  56.2789320
  72.7538608  57.7612692  55.7586693  73.0076365  43.4046094  70.2659903
  72.8705747  42.5998148  70.8334108  73.2122085  44.0762880  70.9582185
  66.6363525  54.5188178  52.4322770  66.2144676  55.1978616  51.8647819
  65.7844988  54.1178749  52.7339451  64.7872824  51.0918781  54.6004505
  65.3754762  51.6380642  54.0456738  63.9069050  51.3493351  54.2397729
  66.4317670  43.7928631  55.5745627  66.7080408  44.2011314  56.4206361
  67.2326381  43.2206489  55.3572617  59.7387029  41.3167451  62.8781489
  58.8845026  40.7933506  62.8665485  59.8053199  41.4383418  63.8607494
  50.0758372  59.3911556  59.9715834  49.1129275  59.1701960  59.8052347
  50.2292996  59.0139763  60.8656840  54.8892661  49.8217281  61.9046542
  54.2089442  50.4918984  62.0674500  55.6883170  50.3340652  62.1707836
  69.8583360  59.9414512  54.5357183  70.4984747  59.6548930  53.8304851
  69.9504977  59.2066599  55.1480809  64.1423947  53.4104364  60.3772296
  63.4036089  53.9019539  60.0466206  64.5491495  53.0020299  59.5974498
  54.9987181  58.6370373  48.6199671  54.3153544  59.3149161  48.6302387
  54.6743569  58.0711532  49.4210167  71.4491120  44.8230430  56.0329772
  70.9239657  44.3149910  55.4042699  72.3619435  44.6752972  55.7321868
  74.5656592  44.0015120  66.4713788  73.8476296  43.3610889  66.6807588
  75.2820678  43.3838624  66.2838069  51.5050137  49.1919878  58.3940791
  51.6639301  48.6748952  57.5666134  51.0729953  48.4950780  58.9625027
  71.2766375  54.9360615  49.1135297  71.5572374  54.1051196  48.6601522
  71.9720528  55.5195973  48.7970537  67.5276252  43.6070559  70.9544947
  68.4660758  43.7027422  70.9591748  67.2617360  44.1866377  70.2109939
  64.0149568  38.9296751  60.0410488  63.1151332  38.8702869  60.4085367
  63.9493858  38.2129480  59.3349251  75.8613601  34.3802199  55.6581896
  75.3276508  34.0451045  56.3997267  76.4387479  33.5740964  55.5877712
  59.2145210  24.5043207   1.2454179  58.7304372  25.1992546   0.7778856
  58.6523281  23.7301102   1.0515229  70.4108639  62.0359193  58.0009842
  71.2624279  61.5949992  57.8171056  70.1088164  61.4700302  58.7353753
  74.1247512  65.4812533  57.2504389  73.7899568  66.3800948  57.6520868
  75.0620513  65.7620856  57.1484733  46.7227106  18.0883177   0.9396468
  46.4965403  17.4307338   0.2886927  47.5496616  17.6837023   1.3706537
  60.4293826  47.7260870  62.9918826  60.8101957  48.6394998  62.9181479
  61.1958425  47.2538608  62.5025511  52.4272020  24.6327924   7.2270670
  53.2535913  24.8489089   6.7264571  52.5272272  25.2143805   8.0009218
  77.0049589  54.6574473  40.2619466  77.7833792  55.1986177  40.3460749
  76.8818851  54.4173162  41.2317397  75.8162260  42.9903519  57.4156460
  76.0779782  42.6125203  56.5637352  74.9031719  42.6998108  57.4443989
  72.7048145  52.6400942  48.0469559  72.2209095  51.9504043  47.6095544
  73.6025776  52.3450474  48.1575520  54.0703383  53.3728267  58.2650312
  53.7549063  52.4451470  58.4150790  54.2627390  53.3452656  57.3168141
  70.2658708  40.3288221  66.1817442  70.1467145  39.7864923  67.0024694
  69.5462625  40.0014751  65.6049223  78.8304824  56.8504508  57.0729750
  79.6056914  57.0024605  57.7114336  78.2375741  57.5706159  57.3122145
  78.4120366  46.3568774  62.3896908  78.3189197  47.1237547  63.0247246
  77.8325070  45.6945473  62.8120489  53.9093495  28.5574766  -3.5663263
  54.6255553  27.8804272  -3.2967312  53.1906192  28.2801400  -2.9511360
   0.5153948  38.9380190  68.9739413  -0.1087267  38.3701659  69.3846506
   0.9635660  38.3626007  68.3292066  66.9465642  59.0908824  52.4385380
  66.5431886  59.1481224  53.2841026  67.7943143  58.6742425  52.5374771
   2.7825757  41.4937365  54.7391009   3.0397840  41.0676176  53.9375765
   3.6929762  41.7004720  55.1811337  65.2098145  46.6673510  57.8031445
  65.1496719  47.5636548  57.5247148  65.6274431  46.7093801  58.6560500
  74.1859478  37.5274830  62.1111895  74.8507399  37.9955111  62.6539755
  74.8067324  36.7997301  61.7992462  65.6098229  56.8917985  51.4559932
  64.7389622  57.1816298  51.8047642  66.1252140  57.7394010  51.5191289
  76.8519566  41.6940089  62.7213557  76.2696789  41.6202463  61.9482160
  77.7217217  41.8604132  62.2587397  58.9604064  47.4854298  58.4583834
  59.5896010  46.7088146  58.4387667  58.4211784  47.3333886  57.6684567
  69.6324687  60.8240978  48.7923133  70.0171818  61.1125872  49.6262760
  70.3132774  60.1915432  48.4492969  66.8994406  53.0689339  55.4355474
  67.6666134  53.2576444  54.8583551  67.3715420  52.7239240  56.2201909
  60.0097473  63.0221471  57.6234071  60.3257692  63.5436515  56.8759087
  60.8676786  62.4730977  57.7382216  60.5619940  53.1837963  57.4203754
  60.6197077  52.2640047  57.1523676  59.5781552  53.2735308  57.5279334
  60.8686648  38.0573270  60.6774026  60.7278210  37.0478221  60.6048176
  59.9133130  38.3339501  60.7685520  63.0679681  49.4800270  60.7083744
  62.7230220  49.1378902  59.8664296  63.9394518  49.8240691  60.3641215
  55.7476058  53.6886440  68.8314098  54.8537715  53.9074577  69.0682935
  56.0459456  54.5937342  68.4707534  58.2157189  60.7920649  57.5300224
  58.7225859  61.6535685  57.6760670  58.9633203  60.2154305  57.2822076
  52.0855582  11.9754944   7.6160257  52.8930916  12.4741411   7.7270501
  52.1642862  11.7774680   6.6228783  56.9362298  51.3628580  62.5330164
  57.0900884  52.0716307  63.1476351  56.7526906  51.9004455  61.7116031
   2.1334945  61.3521558  50.7787790   2.1892231  60.9272005  51.6305220
   1.8121994  62.2557009  51.0361771  38.0185861  12.3207991  11.7065733
  37.5083926  11.8899245  12.3953257  38.8790475  12.4851359  12.1510377
  75.3069073  46.1101594  67.8960180  74.3255125  46.3143464  67.9153853
  75.2918073  45.1963076  67.5705786  70.7436481  51.0111935  46.8085820
  70.6231510  50.0861647  46.9276027  69.8227016  51.3136171  46.5924491
  51.0684078  52.0794817  59.9841160  51.7775879  52.1742041  60.6021757
  51.5895774  51.7593970  59.1892273  64.5984774  58.5549818  63.9389504
  64.9932177  59.2510489  63.4171623  64.6879871  57.8637309  63.2722204
  64.3080218  52.6496528  47.8781297  63.3891317  52.5336623  47.7478912
  64.5197025  53.4666726  47.3787719  67.5289268  48.8191120  58.4771333
  68.3853101  49.3197491  58.5578348  67.9237574  47.9184595  58.6184236
  76.9240385  50.4304697  62.3945484  77.0532926  51.0975133  63.0748960
  77.4453662  49.6842701  62.7690538  54.8903311  12.9636572   5.1201605
  54.7709171  13.2292917   6.0455237  55.1760385  12.0110672   5.2456166
  66.6495918  40.0338822  63.8247315  66.7028154  39.7833579  62.8734107
  65.8199861  40.5443153  63.8115599  48.1154201  26.4614769  -0.3727807
  48.7154489  25.7550321  -0.0404457  47.2457062  26.2305245  -0.0550298
  49.2223562  31.8461654  -7.7694225  48.4267137  31.2631270  -7.6355135
  49.8180177  31.5359288  -7.0525419  72.7045180  42.5743023  67.7302021
  73.2145829  42.9236999  68.5342917  72.1166857  43.2661887  67.4788452
  73.4471850  51.9372257  63.0735057  72.9843168  52.4318924  63.7783703
  72.7851873  51.3765774  62.7415412  65.1853709  61.0985011  43.6728887
  66.0240958  61.5307768  43.8820067  65.3034822  60.8207382  42.7446178
  33.4416216  13.3602113   9.5786323  34.3701986  13.4528768   9.1799631
  33.6875100  12.8310823  10.3594154  53.4418771  59.5917995  62.7692535
  54.1987588  59.3351191  62.3069343  53.5667449  60.5688295  62.6936173
  55.6715076  49.3549944  58.3345524  55.4436916  48.9175081  57.4801562
  55.6578279  48.5100137  58.8691023  69.5749434  49.3226187  56.1246437
  69.4437069  48.3078454  56.1713222  68.8466079  49.5096821  55.4631113
  53.0937790  47.6639780  66.1279369  53.5924627  47.4665613  65.2561557
  53.4068965  48.5642000  66.2114462  60.8381944  50.7592434  55.8314980
  60.0819485  50.7981984  55.1995856  61.0261067  49.8177661  55.9019986
  60.2649705  46.6158313  52.4061249  60.7825072  46.1933375  53.1258826
  59.4889480  46.8960453  52.9445254  51.7976038  41.3724665  66.6880237
  52.5070938  40.7227360  66.6519294  51.2976159  41.1841734  65.9038801
  66.4890592  42.9493014  59.5777203  65.6800002  42.4349360  59.6462584
  66.9453079  42.6610512  60.3766137  49.9450061  19.3063013   3.2034123
  49.4754660  18.6564607   3.8145901  49.3884213  20.0857380   3.3746325
  56.6985059  53.8880652  63.6305809  57.5513185  54.4340983  63.7979237
  56.0434182  54.6339994  63.5842430  52.2680555  57.6269794  64.4048425
  52.6589421  58.2790738  63.7886340  51.9846630  58.1987113  65.1076647
  71.7683024  53.1602942  64.9134559  70.8618765  52.9681665  64.7816679
  71.9089017  52.4260705  65.6882906  66.3379968  35.9763796  56.5019853
  66.9772798  36.0526979  57.2020951  65.6007984  36.4849210  56.7918327
   0.2660241  49.1812511  60.1620605   0.5689847  49.6278503  61.0523963
   1.0632254  49.3588665  59.6802862  63.5639374  43.6009516  68.3502049
  63.2394069  42.7490124  68.6650146  63.5062931  43.4759783  67.4014871
  56.6654609  35.0953140  72.4891700  56.4807883  35.7386708  73.2198392
  57.0546252  34.3804166  73.0102466  44.8532314   3.9616478  11.1428931
  44.3037063   3.3356358  11.6337576  45.0951660   4.5966037  11.8397582
  48.2939258  28.4986793  -2.2056787  48.2900693  27.7901050  -1.5471411
  48.5025543  29.2773023  -1.5811690  51.7783867  54.5448883  66.8612578
  51.8440446  54.8478696  65.9028527  51.9454250  53.5905324  66.7724740
  55.5841175  41.2438547  56.8404979  55.0460553  42.0192508  57.2369188
  56.2962445  41.3239095  57.5582816  41.4277465  19.0803462   9.0629910
  40.4661712  19.4147383   9.0222500  41.4054366  18.5532268   8.2104832
   6.7061030  54.7582921  57.4546685   6.1287524  55.4859414  57.7565542
   7.2831949  55.2928067  56.8136185  65.2656425  42.4800325  45.8780841
  65.2086923  41.5500898  45.6171027  65.6216116  42.4540430  46.7695207
  53.1057712  45.4608686  70.0702211  52.8256995  44.5888687  69.7005295
  53.8503390  45.5996490  69.4575271  74.4492904  71.1019261  45.4317759
  75.0250988  71.8456615  45.6576604  73.9801820  70.9068732  46.2740763
  74.8455537  58.3478421  54.5951978  75.6227092  58.8590893  54.9030190
  75.0595082  57.4792453  54.9131458  61.9131269  55.3903417  64.7149626
  62.7815975  55.0114951  65.0140729  61.9125216  56.1410374  65.3334841
  53.2515598  54.6520839  53.3108353  52.4249278  54.6494199  52.8123203
  53.2449676  55.6327560  53.6208991  67.0813274  47.0526655  52.2874504
  66.9962042  46.8726822  53.2543652  66.2002789  47.0208346  51.9386637
  68.6470078  46.4461353  56.0488897  68.9116730  46.2478745  56.9943877
  69.0132295  45.6841094  55.5715317  42.2618992  15.5834892  14.5332749
  41.9271810  15.5620970  13.6057716  42.7651727  16.4522161  14.4242917
  64.3744674  56.4327449  59.1308391  63.6685235  55.8829505  58.7694991
  65.1665414  55.8814756  58.9340209  52.4479389  13.4651974   1.1982361
  53.3219388  12.9894827   1.3202347  52.1711631  13.3973215   2.1381978
  72.7550315  64.2400259  44.8115040  72.1190177  64.2390626  45.5927441
  73.1359486  63.3429564  44.9659028  75.1535064  48.7928979  66.3654560
  75.5750320  48.0050617  66.1069882  74.1966939  48.5861650  66.1905699
  37.8963496   8.6894137  16.5176196  38.7032191   8.8974748  16.0247076
  38.1576785   8.6920048  17.4628862  64.0392125  63.0098376  55.7731044
  63.8110523  63.9512868  55.5513800  63.8265356  62.5856256  54.9176549
  64.9283959  56.8389186  61.8107226  64.0229047  56.4623284  61.8429873
  65.0047944  56.8862243  60.8012162  66.8769050  47.3330759  44.3502729
  66.6928735  46.4130501  44.5912372  67.8064649  47.3459326  44.1034599
  72.2421810  35.1107419  69.3690865  72.9756811  35.5434422  68.8760703
  72.4274425  34.1521376  69.1245972  63.7878179  36.6856586  58.4651171
  62.9958727  36.5123560  58.0021595  64.0807615  35.8715272  58.8782809
  68.7389793  52.2840831  57.4572488  69.2387104  51.5608798  57.1034425
  68.8367937  52.1154232  58.4109458  61.9686004  45.3346405  75.0959109
  62.2434069  45.3422846  76.0344631  62.1020972  46.2604531  74.8457050
  68.8881405  42.3993650  55.4648558  68.7457904  41.4642570  55.1985279
  69.1387839  42.2752772  56.3837007  61.9463481  32.9795992  57.5668454
  62.8984976  32.8750204  57.4352820  61.7416683  32.1451299  58.0392646
  67.5233926  41.3679574  66.0050042  67.4715644  42.1853244  65.5661493
  67.4796757  40.6937791  65.3180125  71.9780024  56.4531702  54.0397196
  71.4964023  56.1074867  53.2288496  71.9796894  55.6105776  54.5397298
  78.1711525  55.7108345  53.2863222  78.7115562  54.9971761  53.6921129
  77.4971183  55.8212565  53.9602333  72.1666192  42.0627608  55.1389126
  72.6422916  42.0548685  55.9917215  72.7024469  42.6794857  54.5794459
  58.3323740  47.4250877  54.1489297  58.2343915  48.0116866  54.9595352
  57.6310199  46.7588192  54.4410755  31.4883129  20.1857584   8.7462694
  32.3819783  19.8949478   9.0448744  31.7126006  20.9817284   8.2182830
  63.0800763  48.3882515  66.2047131  62.2179441  47.9611969  66.3999319
  63.4619391  47.7256496  65.5355665  77.5539342  52.5588545  64.2855372
  76.8616344  52.0413806  64.8336569  78.3682817  52.1810733  64.7870376
  74.2736805  61.4229456  55.5687534  74.0782933  61.8890219  54.7210518
  75.1979467  61.1260290  55.3217465  53.9971204  62.2318797  63.0234441
  53.7892631  62.7688278  62.2413828  54.8977764  62.5722786  63.1994772
  73.0332616  61.9262123  48.7610624  73.6546203  61.9194914  49.5009412
  72.3948273  62.5727283  49.0816912  64.1328231  54.5815905  55.8542855
  65.1363015  54.4914744  55.8642051  63.9830793  53.9417786  55.1419907
   2.4361531  49.0235429  56.5268890   1.6673308  49.0705279  55.8657262
   3.0507024  49.5702983  55.9796750   5.4321068  64.6377490  62.2579370
   6.0737103  63.8287336  62.2821704   5.2677298  64.6023589  61.2579970
   6.2190949  58.2258651  49.7969003   6.9299953  58.3814849  50.4140830
   5.9700236  59.1221016  49.4690203  47.6140136  20.7252242   0.2020826
  46.8398262  21.2595147   0.5802389  47.2638741  19.8226010   0.5235270
  47.8870367  49.4580098  66.6905603  47.5101176  48.9236592  65.9960267
  47.1972147  49.3187290  67.4094594  62.4546735  51.5720663  53.4481795
  62.2717333  50.6975006  52.9915428  61.7031087  51.5579518  54.0666289
  72.9497415  32.3316620  61.9264856  72.9780432  31.3637822  62.1675864
  73.6286975  32.6520810  62.5268843  61.3492670  28.4772354  -0.9971898
  60.7622720  28.5402342  -0.2186889  61.6953850  27.5755101  -0.8113083
  50.9619261  29.2721773  -5.5508799  51.0667431  30.0898586  -5.1477248
  50.8464496  28.6595118  -4.7690446  66.6012878  61.9779513  56.2212134
  66.9920965  62.6106835  56.8391979  65.7454615  62.3999827  56.0537986
  76.6268663  58.0969073  61.0220254  77.4885710  58.3202774  61.4341841
  76.0732579  58.6430201  61.5938249  30.3405110  -1.2133288  50.2089022
  30.1275747  -1.9226326  50.8422339  31.2239034  -1.4791081  49.9339142
  70.4400681  66.0037500  58.0335730  70.3380494  66.9043925  58.3428167
  69.5324265  65.7232172  58.0547953  77.6853370  61.1200839  40.9081809
  76.7673211  61.2139186  41.0822820  78.0612911  61.6249886  41.6788434
  63.8323418  61.6059578  53.3694558  63.2875579  62.0913945  52.6878470
  64.6863321  61.6529453  52.8295581  71.5765040  63.2743796  55.3147835
  71.9502389  62.6195120  54.6847451  70.6250842  63.0135131  55.1186298
   2.7341379  57.1033819  60.3518773   2.8632982  57.3530358  61.2528852
   2.0019972  56.4098601  60.4521653   7.4477622  62.6249021  56.6480358
   7.8550679  62.6276674  57.5526356   6.5139184  62.4756135  56.8823192
  62.6317007  63.7634265  51.9235297  61.9717193  63.4568268  51.2170771
  63.3190225  64.1509716  51.3307407  75.9571712  55.4375279  45.9491833
  76.3840487  56.1972600  45.5370162  75.1535063  55.2782276  45.3966191
  63.4738976  56.4570120  43.1401832  62.9029862  55.8103356  43.6237527
  63.8493992  56.9082650  43.9947826  69.4524357  62.9630888  51.5690671
  69.4505437  62.0261213  51.7917953  69.2130292  63.3418778  52.4250675
  61.6959468  60.1697852  54.6617797  62.6095790  60.5035858  54.3853927
  61.4290670  59.8322846  53.7770623  58.5783460  58.0595966  54.7253777
  58.9997133  57.6873369  54.0076593  57.8701984  58.6019468  54.3918615
   1.8772910  53.4275825  62.5658476   1.8612388  53.8238895  61.6564997
   2.5271407  53.9822836  63.0370854  31.8542180   0.7747346  48.0539570
  32.0587406   1.7480760  47.8442829  31.1634010   0.6640864  47.3558571
  28.6857023  -2.3091467  41.8292851  27.7441383  -1.9390003  41.8219586
  29.1220397  -1.5328043  42.2610987  31.3039913  -4.5656832  54.6768595
  31.7339497  -5.0497741  53.9613249  30.4846298  -5.1103279  54.8737386
  19.9018589  74.7055437  44.6590867  20.1897920  74.1242242  45.4217598
  19.5569824  75.4719805  45.2347043  30.4844270  -4.1238543  45.7376774
  29.9984853  -4.7948707  46.2322163  29.8694820  -4.0052808  44.9452040
  45.0154250   0.6851235  48.6069811  44.2546243   1.3332922  48.9167480
  45.1282677   0.2613262  49.5088695  58.4575814  30.1945364   0.1985052
  57.8279601  29.7294075  -0.3580913  58.7633850  30.9140223  -0.3250376
  36.7013478  -1.5116722  44.4062828  35.8055423  -1.5888928  44.0548997
  36.5793796  -1.7982283  45.3464452  15.0286157  62.3601089  53.2449306
  15.3325408  62.7525648  54.1146898  15.5906560  61.5566888  53.1909902
  26.9790770  -4.4140421  51.5346870  26.2965551  -4.5422608  52.2103203
  26.4342170  -4.0680298  50.7917378  31.0356375   6.3421391  44.0397109
  31.4168028   7.1462249  44.4709781  30.7025998   6.6921671  43.1969468
  76.7566357  63.8624892  46.3172413  76.3427202  64.7168759  45.9750114
  77.6637158  63.9611853  45.9432554  28.3453316   0.4415856  46.5072494
  27.6479713   0.2937987  45.8641291  29.0332899   0.8597356  45.9476746
  41.7951185   6.0381771  52.0343289  41.7862226   5.0534986  51.8468187
  41.6644395   6.4035615  51.1355934   1.0280714  60.1360231  45.5918965
   0.8522178  60.9177578  46.1128193   0.6882372  59.4233317  46.2419142
  44.2051402  -0.2802121  56.5930336  44.4257261  -1.0578270  57.1255316
  44.3985141   0.4823509  57.1491021  21.4946087   3.5983468  55.1364682
  22.1950780   2.8914737  54.9192520  20.8587509   3.2752439  54.4830424
  33.4872932  -2.0985825  47.1944733  34.3492608  -2.5763522  47.0888053
  33.7993228  -1.2113920  47.4230478  25.9250320  -1.3816173  42.2928841
  25.6715948  -0.3945346  42.1964970  25.1411679  -1.6171366  42.8296521
  30.0753216   6.3825629  56.3195828  29.8271173   5.8315226  57.0613604
  30.7476510   5.8379347  55.8852053  35.6262556   6.4825625  51.0598758
  36.1870631   6.5926410  50.3482212  36.0581867   5.9246889  51.7188538
  32.9236049  72.0342074  40.4130234  32.2627791  72.6728476  40.8839861
  32.3026904  71.5183472  39.8677273  49.6681920  17.2113753  50.7091053
  48.8925046  17.4540354  50.1773323  49.2691529  16.5070874  51.2535782
  28.8474980   0.2216483  54.1929647  29.5488842  -0.4426144  54.0785259
  28.1273134  -0.2269991  53.6725852  72.0516267  42.0454528   9.0246863
  71.0853096  41.8772515   8.9396279  72.1021064  42.3165514  10.0156148
  41.8987616  13.1467705  53.8627150  41.6652220  12.3351305  54.2589595
  41.3596416  13.1756951  53.0155354  30.1917125  -0.5847331  43.2821129
  30.5380019  -0.9680554  44.1284645  30.7887565   0.1743126  43.1809993
  21.0082055  20.7154405  46.4182099  20.1534698  21.0840658  46.7209246
  20.9367130  19.8222343  46.8458843  47.3708715   3.8196866  54.9422634
  47.7444717   3.4587981  55.7604916  46.4745895   4.0581708  55.1735531
  53.7086304   7.6473301  62.8772819  53.5790572   7.3246362  63.7766894
  53.3702600   8.5338679  62.9116787  16.5595662  65.2021131  43.7300306
  15.9805287  65.1747699  42.9621130  16.0194389  65.7789493  44.3161753
  47.1997490   7.6171519  47.4691925  48.0998889   7.3314971  47.7016568
  46.7888439   7.4723571  48.3842704  30.5642807  72.9471861  41.7165390
  30.1784449  73.5456057  42.3995157  29.8127732  72.9988432  41.0850988
  33.6529339   3.8044658  43.9335369  34.0431215   4.3066110  43.1968422
  33.2943083   4.5374114  44.4985469  57.6216337  11.8377908  35.7077826
  58.5318223  11.6751952  35.6546129  57.2253574  10.9792375  36.0328829
  32.9380913   5.9657400  52.6954124  32.6322903   5.2958330  52.0028531
  33.8840790   5.7627766  52.7340386  46.5319871  12.0164443  49.3774407
  45.7493982  12.2642310  50.0263294  46.3826803  12.6677650  48.6660528
  41.9365078  10.8592680  44.4420535  42.0887195  11.7990151  44.3075594
  42.3923436  10.7524104  45.3411106  47.0608261  13.2535024  55.5101360
  46.5807067  12.7049121  56.1305136  46.5510572  13.2006004  54.7077790
  33.8668824  12.2935310  61.6605197  33.9036015  13.0900119  62.2283739
  34.6089659  12.4872473  61.0479907  49.8331845   6.0837972  36.9378708
  50.7106851   5.7656853  37.2784311  49.2801330   5.2936677  37.0618391
  46.4001904   8.3669636  52.4645538  46.9337235   7.8237096  53.0867311
  45.6629635   7.7687625  52.3021446  31.8838196  68.9399922  54.1750883
  31.1490379  68.2829107  54.2904388  31.7953372  69.0460944  53.1811836
  36.0251046  74.2728453  46.0580201  36.5549025  74.6716084  45.2915787
  35.7412359  73.4412733  45.6420996  37.8371445  79.3412669  52.8827369
  37.1292135  79.2025662  52.1371844  37.5650313  80.1838384  53.2153404
  41.1525992  10.1963013  34.4691671  40.3540286   9.7234221  34.2056159
  41.7382429  10.0291041  33.6543135  53.2035995   6.7410906  45.3128613
  53.0888807   7.0707467  44.3862603  53.0983191   5.7274430  45.0991325
  42.0237304  -1.0708293  49.5731920  42.8261009  -0.7832557  50.0766339
  42.3191133  -1.9180038  49.2371245  31.7504711   4.5956085  55.4398112
  32.4445150   4.0922587  55.9107954  31.2243293   3.7903223  55.1274944
   8.9218009  65.3602805  46.6449086   9.0488208  66.0177335  47.3501493
   8.9336417  65.9859139  45.8388861  53.1486286   9.5863243  58.6178777
  52.8043170  10.1376631  57.8615223  52.3613539   9.0239641  58.8035712
  42.0390345   6.5239333  49.2659907  42.5551944   6.0026881  48.6522850
  42.5587510   7.3438425  49.2666050  32.5473004  78.3194173  52.3334269
  31.7505758  78.7482503  52.7082548  32.0947315  77.5476208  51.8827648
  24.5958046  64.6792336  47.3405979  24.7994815  65.2631494  46.5626418
  24.2777611  65.3571701  47.9742139  35.5611421  14.4381540  53.2106467
  34.7884424  13.9377104  53.5421024  35.7702131  14.9923493  53.9906313
  38.9830128   5.8126241  43.6135107  38.6300669   5.1659440  44.2875058
  38.6316247   6.6580084  43.9632255  43.4822985   4.3440239  43.9956976
  43.1671332   5.2439439  43.8744254  42.8442899   3.8579435  43.3802377
  37.4749551  -0.5296998  48.2148986  36.7698767  -0.7371846  47.5108002
  37.3344315  -1.3294263  48.7517322  39.5334641  11.8634846  46.5721709
  40.3771192  11.7844989  47.0550153  39.0081622  11.1311737  47.0348026
  11.1083484  70.1394302  53.2741741  11.0484225  69.2205235  53.0250440
  11.8154265  70.0628805  54.0178034  45.5869540  11.4539129  57.0222650
  45.3369036  10.9368514  56.2241372  46.3442382  10.8848816  57.3301849
  44.2424018  12.0237553  32.9979159  44.8208185  11.8197708  33.7314040
  43.7110533  11.1665685  32.9651984  39.8728333  11.8163281  66.0460915
  39.7829107  11.5663296  67.0086560  40.1230677  10.9657824  65.6635052
  44.8093583  10.4284766  61.8967064  45.0596379  10.0647036  62.7843151
  43.8328763  10.5800658  62.0951858  37.8827077   1.3534064  50.1148032
  37.9462765   0.6472557  49.4452658  37.2200304   1.9650114  49.7558110
  28.3731200  70.1097558  41.7437784  28.2677859  70.2338536  42.6938668
  28.3793976  69.1352673  41.6678403  24.8056934  71.4167001  33.1370804
  25.6255873  71.2868422  32.6579289  24.8396292  72.3829970  33.3413403
  29.4682937  74.9816350  48.9948857  29.1895174  75.9284258  48.9810228
  30.2671800  75.0394924  48.4391378  50.0507163   2.0264484  41.6406218
  49.1542907   1.7788499  41.9539681  49.9405024   3.0217334  41.8663209
  26.8195529  66.5666997  49.8697428  26.9869302  66.0353898  49.0968353
  26.3071441  65.9577589  50.4213557  39.4050253   1.4794420  44.6727880
  39.7040315   0.9491976  45.4298311  40.2266593   1.3728705  44.0851296
  27.8457545  77.5104012  42.6621415  28.3149227  77.8247283  41.8908083
  27.2196183  76.9020320  42.2456179  25.0337387  73.4352330  56.1350292
  25.6036823  74.0956867  56.6047205  24.8893051  73.9351717  55.2978999
  59.5591885   7.2322507  50.9380860  58.8603897   7.8759759  50.9245977
  59.6470100   6.9826128  50.0085298  15.4215953  71.2780602  48.3157243
  15.9626078  71.1192672  47.5149367  15.6232039  70.4653248  48.8266049
  19.5155103  71.1380528  30.4645955  18.6040082  70.7546509  30.2435172
  20.0324793  70.4685986  29.8758436  32.4377479  76.1937630  45.2900215
  32.1501300  76.7075847  44.5277525  33.2366024  76.6478780  45.5384353
  21.5036975  74.9724312  28.3507017  20.7249570  74.7848470  27.7892110
  21.1678073  74.5534450  29.2100085  41.4282612   1.1056198  48.0672256
  41.0532095   0.4888269  47.3496401  41.7276570   0.4352904  48.7096497
  45.3597978   1.4106166  46.1758810  44.5402256   1.9301570  45.9876100
  45.2202108   1.3431631  47.1716724  28.9344537  67.1989584  38.6800447
  29.3397446  66.5234967  39.2960664  28.2295157  67.4989777  39.3544074
  35.8876454  13.9941826  50.3200118  35.3304727  13.1854198  50.4506176
  35.6996533  14.4547762  51.1890145  50.7710763   7.6438690  57.1602420
  51.1271374   7.2918045  57.9756172  49.8495461   7.3752105  57.2338681
  23.0162547  68.6286232  43.8153029  22.8676040  68.4029562  44.7640066
  22.8691298  69.6079389  43.8640856  56.3459356  12.0162665  55.7674570
  56.1312014  12.9574547  56.0032850  57.1290865  11.9585452  56.4181660
  48.1380902  15.1999889  60.7571133  48.1172250  15.2857062  61.7376914
  47.6481149  16.0420323  60.4968799  41.1046507  19.9485717  53.0115251
  41.9880765  20.2474746  53.3292953  41.0974653  20.1826613  52.1164058
  38.0181906   4.9042794  51.8236846  38.2499308   5.7860929  51.4154409
  38.7791601   4.3600843  51.5675838  53.0833402   3.5442089  47.5683738
  52.1404839   3.3714000  47.3800973  53.3135442   3.9836427  46.7731731
  38.6340916   6.4806346  60.7318142  39.2793522   6.7736661  60.0677622
  37.8245903   6.5380868  60.2183793  53.3366924   8.1340947  54.5349137
  53.0133175   7.6548221  53.7600596  53.9745580   8.7537084  54.1403805
  36.2477668  18.1955859  51.9224357  37.2396405  17.9704135  51.8932590
  36.3955496  19.1723205  51.7293089  55.2506959   5.9943687  61.4583699
  55.1387834   6.4417935  60.5923560  54.7269145   6.5104945  62.0593022
  51.4937898  16.5485346  62.8522452  52.3526949  16.3821776  63.2365910
  51.1664164  15.7136914  62.4923099  48.1760048  10.2071760  54.5616666
  48.3489449  10.9123776  53.9291542  48.9383509   9.5880798  54.3897037
  39.9513643   3.4182993  49.8736804  39.2949030   2.6918487  49.7484316
  40.0450058   3.7715282  48.9937461  44.0051093   9.4975078  40.4858193
  43.2259458  10.0748687  40.6284414  44.2519412   9.2686194  41.4240546
  47.5355891   2.8021446  47.3242191  46.8876731   2.2168619  46.8469658
  47.6097235   3.5471033  46.6302864  45.1834476  20.7806132  67.1817017
  45.1753636  20.5883327  68.1876287  46.1727951  20.6289123  67.0679504
  36.6255475  15.5867035  48.0683731  36.4068371  15.0085295  48.8363700
  35.8397483  15.3270841  47.4951081  43.5383900  20.4497216  53.4970533
  43.5172430  19.9442522  54.3027140  44.3229920  21.0413213  53.6157612
  41.5966634   1.4188444  38.2762303  40.8123749   1.6242291  37.7288321
  41.9194145   0.6301101  37.7775993  55.1740076   7.2098953  56.5012032
  54.3876693   7.6066344  56.0340780  55.0381059   6.2416708  56.3249382
  24.9518370   0.9031018  35.5277055  24.2485868   0.3928571  35.0514907
  24.6419972   0.8397813  36.4826621  24.0438893  72.6931845  60.0872527
  24.0849224  73.5497620  60.4908502  24.8672398  72.5259219  59.6413483
  58.2040062   7.1118150  53.5554873  58.5401018   6.5929574  54.2831469
  58.8511348   6.8775125  52.8693265  41.4215589  14.7812465  49.8614111
  40.7115485  15.0878946  49.1813259  40.9257943  14.3976292  50.5592821
  56.3172258  20.8994085  58.1308118  56.3702771  21.8626070  57.8995554
  55.7622569  20.6135715  57.3398649  48.9169705  11.9325352  52.5290947
  48.3557534  11.4585015  51.8606112  49.7586906  11.8040700  52.1015932
  49.3481367   2.0905198  56.1300594  50.0453267   2.6182035  56.6166003
  49.4786014   1.2726546  56.6132530  42.4179151   7.0025059  40.7389461
  41.6871805   7.6105636  40.5192194  43.1232281   7.4066092  40.1798412
  23.9145763  75.1199823  53.9880818  23.1082860  75.6791632  54.1562856
  24.2672559  75.7516637  53.3189637  60.2857011  11.8750613  56.3439117
  59.6521789  12.3567047  56.8521063  60.6642049  12.6126726  55.8325805
  39.2015751   5.0561549  35.6846598  38.7162947   5.4733765  34.9264334
  38.4407658   4.9981322  36.3018334  65.2317518  48.3847696   7.6686729
  66.0470039  48.5325162   7.1517926  65.5654250  47.6466726   8.2301006
  41.3437574   8.0283521  56.5632651  41.0568421   7.4536447  57.3061620
  40.8883846   7.6457100  55.8192692  44.0055603  15.1106021  50.3659803
  43.0147703  15.0086153  50.2805758  43.9914121  16.0066776  50.8145842
   6.5357788  68.8822346  53.1890248   7.2726818  68.7669904  53.8477070
   7.0183543  68.5625707  52.3791786  48.3328960  20.1256344  63.3913233
  48.4751239  19.2468606  63.7443859  47.3415530  20.1551022  63.3027931
  39.7331648  -1.3740224  58.7421455  39.0109583  -1.9501189  58.4077696
  40.1127401  -1.0296494  57.9470708  31.7975783  72.7936094  61.5443408
  31.8415797  72.5718597  60.5945275  31.2702898  73.6300057  61.5199248
  32.4773603   3.5762656  48.2232755  32.1727543   4.1180009  47.4317908
  33.4492297   3.6323857  48.0828589  43.6338411   9.7720125  51.1053220
  43.3617441   9.4319273  52.0188670  43.6047418  10.7158459  51.2475570
  18.7674478  59.6193065  53.9487992  19.2648626  59.8834293  54.8010721
  19.5543188  59.3865251  53.4296248  18.4785967  59.8711140   4.1511619
  19.3807143  60.1975127   4.0991853  18.5751325  58.9262838   4.0609011
  44.7887719   1.8604622  39.4889928  44.6733516   1.5010891  38.5792951
  44.3227550   1.1016544  40.0020791  45.8649903   7.0778482  49.5813963
  45.4246842   7.1128783  50.5049159  46.0926162   6.1111757  49.5680997
  57.3831239   4.2263552  38.5734050  56.8649967   5.0712472  38.6116222
  57.6247851   4.2942312  37.6147232  28.7978067  77.7598298  48.8143854
  28.9831955  78.1947583  49.6796716  27.9767238  78.1572345  48.5223345
  51.7704776   2.0162524  38.1289268  50.8269985   2.0933559  38.4300199
  52.1417046   2.8733872  38.4643938  50.4104534   7.8569656  45.2269270
  51.3554963   7.9548979  45.4080401  50.0685590   8.6525318  45.6822725
  39.7478925  -0.5138516  46.6618367  38.9300661  -0.3416313  47.2201109
  39.6164364  -1.4840300  46.5603411  34.8946519  74.5999564  48.6326640
  35.7454848  74.5351758  49.1161715  35.3361518  74.7526389  47.7198572
  49.3341475  10.1888136  46.6244996  48.7727377  10.1226178  47.3912709
  49.1236810  11.1526572  46.3518164  45.0923721  10.6491902  54.2848453
  46.0076019  10.4226995  54.0979304  44.5899433   9.9045944  53.9725419
  51.1310067   2.6874105  45.1257951  51.0759891   1.7297172  44.8384841
  50.6334085   2.5918683  45.9495390  47.5998608  14.3008849  51.8713612
  47.7683784  13.4490146  52.3252525  48.0226073  14.1293352  51.0011881
  50.3303507   2.4595708  47.6321518  49.3644472   2.4691537  47.5269763
  50.3605794   3.0379613  48.4597256  50.7744980   9.0342777  54.6923207
  50.6706339   8.5660227  55.5275451  51.7334451   8.8742155  54.5009657
  13.0808359  71.5829412  46.8433476  13.9602259  71.3325081  47.0032573
  12.5545295  70.7687400  47.0566054  52.3415187   5.7292781  58.3191366
  53.2149627   6.1781601  58.2368269  52.1569288   5.7376508  59.2636890
  36.7880009  67.1994041  60.5117719  36.1349323  67.7039216  61.0363309
  37.6121335  67.3874257  61.0180373  36.4586201   8.9339799  46.5453626
  35.9307866   8.2345046  46.1885582  37.3754269   8.7049673  46.1898757
  24.2255768  67.3222663  55.3137255  24.1848688  67.9418648  54.5538175
  24.6307100  66.5615482  54.8669962  39.2663265  75.8652400  56.8112060
  39.3850732  76.7001962  56.2358167  39.5181113  75.1766680  56.1411483
  35.2687257  71.5794768  51.5928648  36.1893891  71.9418156  51.7710870
  35.0788248  71.1928458  52.5002248  46.6606767   3.8527917  40.8288849
  46.4542271   3.5987052  41.7306589  45.9094213   3.4650611  40.3347747
  49.8157733   5.3336411  45.2907564  49.7956190   6.3249804  45.2490698
  50.4414429   5.1504825  45.8940615  40.5081311   0.7525984  40.9086352
  40.8652656   1.2357755  40.1094402  40.7597686  -0.1592956  40.6808708
  38.7589005   8.1498204  55.1297224  38.0339250   8.5217248  55.6538091
  38.3223971   7.5155322  54.5747892  43.9087025   0.4137648  34.5976906
  43.9792116   1.4394360  34.3547983  43.0816955   0.3074966  33.9941828
  48.2145873  11.7402946  39.3303604  48.7298445  12.5140268  39.2923486
  48.1573212  11.4823435  38.3981137  20.7234687  69.5735608  28.5686285
  20.5121116  69.4567940  27.6661107  21.2296851  68.7768685  28.8201818
  50.4215496  10.8679374  61.0501385  50.9222960  10.1734190  60.5958845
  50.2121382  11.4596996  60.2827237  49.4736197   5.4453105  30.1530760
  50.1601951   5.7793823  30.7662569  48.9854607   6.2844879  30.0486080
  34.7408062   9.6009849  42.3476654  34.8073316   9.4289158  41.3883347
  33.8012153   9.9064311  42.3865881  43.7296463   8.9239174  57.6768590
  42.9496982   8.5121592  57.2707654  43.3206499   9.7038572  58.0911200
  42.3972408   3.1675205  63.7294922  42.3077251   2.5267931  64.5400970
  42.6201600   3.9117151  64.2949519  44.4511666   4.2713182  53.3664586
  44.9676035   3.7999021  52.6230521  44.0103344   3.4312442  53.7337998
  55.0285373  10.1342570  61.7435572  54.8442372  10.6807478  60.9979137
  54.2029220  10.2093596  62.2562602  55.8342340   3.8047757  58.6735339
  55.6280869   4.3692553  57.8962187  55.6476750   2.9427123  58.3563711
  30.7049156  14.6346329  60.3403828  30.4597698  15.2513184  59.6713542
  31.5772291  14.3108998  60.0696598  50.8127731   8.5102370  59.9500267
  51.1340209   7.6769900  60.3693576  49.8466681   8.3425854  60.0226874
  51.8812055  16.0414189  59.0139601  52.2610489  16.9101107  58.8215794
  51.8423026  15.6346519  58.1202351  41.5162063   4.6168299  39.6536528
  41.3179869   4.1550162  40.5014797  41.8458265   5.4729220  39.9840327
  17.6931755  65.7495544  32.5714392  18.3621334  65.7619830  31.8164151
  18.0258552  66.5517344  33.0456290  47.8683569  10.1226396  43.8521019
  48.8085482  10.3929115  43.7658679  47.5570744  10.5480965  43.0199806
  47.0442545  11.4477018  41.7573157  46.0777955  11.4792582  41.7947178
  47.2275040  11.5142271  40.8068317  30.4416339  75.0280003  56.4918248
  30.9999609  74.2269837  56.5031005  31.2197838  75.6735703  56.5017735
  30.5380510  -5.3397581  51.6554719  31.4560910  -5.6291687  51.7718968
  30.0676756  -6.1450278  51.3434736  55.2580297   5.4063422  69.7412271
  56.0027195   6.0491373  69.5700662  55.3568567   4.9140761  68.9306451
  43.8333906   8.6209764  48.5133104  43.7230596   9.0760463  49.3680955
  44.6601116   8.1040611  48.7082515  50.8337311   9.5247214  41.6016547
  51.6559954   9.2751425  42.0920596  50.4105112  10.1478092  42.2519156
  54.9349115  20.4816812  55.6598963  55.8618751  20.2256436  55.4456971
  54.7581803  21.0693359  54.8300256  51.5228750  21.4703232  61.3399068
  51.6803585  21.8003736  60.4420731  51.5747284  20.4888265  61.1674682
  52.4491457  17.4315815  51.4753476  52.1022614  16.8255094  50.7976002
  51.7786204  17.3501539  52.1539146  51.2067648  18.4920979  61.0247723
  50.6278339  17.9972369  60.4511156  51.4165618  17.7945382  61.7242916
  58.0485936  16.0941088  49.4659179  58.0527227  16.1178135  48.4952144
  57.2531317  15.6617714  49.7012096  76.1473331  17.9763568  55.8624218
  75.3206889  17.9358699  55.4294092  76.6443516  18.6439750  55.3530596
  55.6494923  16.1464101  42.8599146  55.5563472  15.7714000  43.7693894
  56.1961309  16.9169792  43.0932461  41.4168534  73.6774555  39.8561049
  40.7561084  73.0016505  39.9628480  41.4750575  74.0989214  40.7107293
  48.4368732   7.7152510  33.0160428  47.6453635   7.2880762  33.3120367
  48.5674942   8.3583747  33.7071463  47.1049262  20.5299533  55.2294167
  46.6688725  21.3823700  55.1700121  48.0691389  20.7813848  55.1690645
  61.1981189   7.8738990  42.1645402  61.6171338   8.3831038  42.9092721
  61.5824688   7.0047491  42.2926175  55.6102857   8.7332138  46.3834443
  56.4649123   8.9976502  46.0362225  55.5205482   7.8698141  46.0640695
  36.1126014  20.3043325  47.4059491  36.3784347  19.4133560  47.8078731
  36.4314838  20.1854061  46.4987290  57.1625166  15.0869914  58.5609717
  56.5595880  14.9256674  57.8200619  57.9009709  14.4946666  58.3485270
  64.6653536   8.2228259  45.1978956  64.7326101   9.1260714  44.7804433
  65.1288257   8.5212317  46.0259531  46.6312984  25.8012131  47.7071066
  45.6746629  26.1233160  47.8802489  46.7506206  25.3660751  48.5866246
  47.2020034  19.3111667  52.8196943  46.9417414  19.6936413  53.6955869
  47.4986089  18.4416254  53.0734343  55.3955378  22.3811168  51.4697357
  55.3834991  23.0306018  50.6521849  55.8627982  21.6753740  50.9191015
  53.3344479  16.5356703  64.6066418  53.0082032  15.8694037  65.2582666
  54.2239320  16.6134513  64.8947910  66.3264138  15.2506375  50.2531348
  66.5078508  14.6866376  51.0405727  67.0623315  14.9280166  49.6809911
  56.6108702  18.5468023  52.8382567  57.5088116  18.5146612  52.4470107
  56.0547021  18.5595379  52.0744916  50.0300635  20.1613532  45.4432953
  50.7620699  20.8287324  45.4664659  49.3254521  20.7899304  45.0888396
  53.3730474  23.4120867  67.9395470  54.0701838  24.1182200  68.0560089
  53.7777825  22.6657988  68.4097983  43.6219210  10.8111672  46.7524783
  44.4375208  11.0986658  46.2782024  44.0211232  10.0092638  47.2524454
  45.9149644  19.0439643  57.0667075  46.6031907  19.5948266  56.5762123
  45.6464088  19.6485011  57.7764061  21.6179879  58.0153523   2.1040067
  22.3697385  58.4423869   1.6319322  20.8984752  58.6879444   1.8499930
  48.2548833   8.7922200  61.1301801  47.9509360   9.7036820  60.7888592
  48.9046343   9.0815724  61.7384539  47.9478001  24.3437325  65.6981550
  47.0179402  24.1189281  65.3789184  48.3273979  23.4505936  65.3806430
  43.5216320  17.2788294  51.7809683  42.6658390  17.0850271  52.1707869
  44.0858578  17.3891387  52.5627288  33.5531670  72.2732454  49.6270188
  34.0348002  72.9889042  49.2245209  34.3221406  71.7219246  49.9879738
  53.1206468  16.6811812  54.5191510  52.9955898  17.5958645  54.3402688
  53.3909627  16.2734803  53.6958790  52.5422141   8.4289491  47.6822996
  52.8880628   7.8326048  46.9881803  52.7592050   9.2897176  47.2982053
  57.6312243  12.4888103  53.2962832  57.3273716  12.6708957  54.2353444
  58.3210760  11.8506372  53.5044984  46.2865918   8.2750523  44.9920122
  46.6886303   8.2032838  45.8958786  46.9167620   8.9354466  44.5888953
  68.5634842  14.0831919  53.1752681  68.1482312  13.3032673  53.6168726
  69.4794385  13.7047772  53.2083538  55.1993779  11.2889867  58.7872315
  54.4250777  10.7643149  58.5354973  54.8366911  11.9836566  59.3027527
  64.1490276  20.9931238  49.0439960  64.9655450  21.4327106  49.0027085
  63.6322413  21.5269128  49.7291136  28.8788146  74.5980641  43.3984134
  29.0846843  75.2459228  44.1114204  28.4050763  75.1242476  42.7491606
  62.7387137   9.9413847  53.2803080  62.2631570   9.5689890  54.0576751
  63.0764068  10.7523287  53.7594915  56.5021617  19.7026060  46.7905644
  55.8828707  20.3195628  46.2741318  57.3283374  19.8998092  46.2207866
  59.6750856  14.4397162  44.1494078  59.0465249  14.8288757  43.4434134
  60.2409515  13.8944343  43.5569663  40.7067010  79.5041822  61.0866885
  39.7569484  79.5296323  60.7363282  41.1563885  79.4345818  60.2271812
  53.9916052  15.2034406  52.0484058  53.1198323  14.7783988  52.2419582
  53.7624773  15.6526213  51.1976249  60.0127272  15.9717729  56.4991246
  59.3674000  16.7199968  56.7298768  60.3491422  16.3427285  55.6309602
  55.1712781   4.4570281  56.0296082  54.7264477   3.5889808  55.8396456
  55.5280906   4.5804001  55.0975849  57.6318634   8.1348345  38.6010660
  57.0568806   7.7115287  37.8869070  57.1477002   7.7678341  39.3895611
  57.5250225  19.6818309  55.0484993  58.4041429  19.9333673  54.7668103
  57.1687339  19.2037786  54.2158965  59.4903692   5.9072252  64.2904287
  60.4373830   5.9483707  64.0450000  59.5505630   5.1341850  64.8600689
  56.5750384  20.5530382  49.3223303  55.8779617  19.9199851  49.6136102
  56.5535111  20.4048957  48.3488441  69.5595701  19.2729894  61.7670980
  69.4776974  18.4226630  61.2631430  69.5703087  18.9090955  62.6624545
  58.6103110   6.4530487  56.3322832  59.1316517   5.7255268  55.8984443
  58.8688105   6.2715262  57.2678353  44.2690318  21.2593599  64.7463526
  44.6603283  21.0303875  65.6453273  43.3319518  21.0761048  64.9293143
  40.1319050  13.1415367  51.7157224  39.6068951  12.9542731  50.9082103
  39.3432654  13.1109159  52.3426240  47.6933362  20.7248314  49.5349315
  47.5139564  21.3149861  48.7768551  46.8671126  20.8397821  50.0440318
  53.2805739  19.2414662  57.2059532  53.5270951  18.2823737  57.2154290
  53.9616458  19.5857850  56.5880603  49.1892331  18.6533619  47.6703810
  49.4538335  19.3817420  47.1040077  48.6826362  19.0832109  48.3531143
  51.5648446  10.9959646  51.0504698  52.3253298  10.6662890  51.6169016
  51.1851927  10.1235313  50.8197127  71.5420449  10.1573881  48.4813990
  70.6822873  10.5192838  48.5049895  71.6076906   9.8159237  47.5487481
  57.2135403  18.0151213  44.1384017  57.0812355  18.2450460  45.0709002
  57.6577324  18.8982607  43.8944161  55.9810686   9.9854450  53.9350553
  56.6469458   9.3590799  54.2392581  56.1970703  10.7625981  54.4904710
  58.1296628  14.2450936  55.6436580  57.8356888  14.7642369  54.8345268
  58.8219116  14.8440409  55.9959145  55.1909242   9.4960415  49.9494806
  55.4716135  10.2769398  49.3906808  54.6773373   9.9718617  50.6185056
  52.0150758  12.0592933  57.4135056  52.2145485  12.7252848  58.1124950
  51.0138687  12.0599315  57.5255002  45.8148686  20.8359277  59.0887291
  45.2687290  21.4853976  59.6281305  46.5748371  20.7566729  59.7590438
  50.5314681  23.5149425  62.8992683  50.7550329  22.8331942  62.2021206
  50.5509798  22.9824401  63.7457307  39.7286509  18.8938079  58.9474330
  39.7431465  17.9230538  58.7480090  39.6435587  18.8934479  59.9430095
  53.6905587  10.4092658  52.6203127  53.2154719  10.9892451  53.2649427
  54.5861310  10.4406771  53.1151879  64.0472672  14.0471267  52.6372175
  63.9447864  14.8575521  52.1932647  63.1284247  13.7391516  52.6695369
  52.4628199   4.3969696  52.1002361  53.4581403   4.4226247  52.1687242
  52.2793473   5.3216271  52.3750768  24.5173630  68.5761370  57.6283541
  24.7360833  69.3780709  57.0828318  24.5776154  67.9232592  56.9180321
  50.5296731   4.0465807  49.8935950  51.4512494   4.2096202  50.2024930
  50.0649755   4.7683298  50.3136636  58.4985918  22.0060108  50.5787321
  57.9334502  21.2983110  50.1840399  59.3073042  21.8190633  50.0721528
  58.3380736  18.0199527  56.9732295  58.2034433  18.8026736  56.3485944
  57.6476521  17.4095990  56.5582507  32.7494733  79.4409218  59.0527226
  32.0431130  78.7525054  59.0418294  32.2821527  80.2402974  59.2942265
  37.6881314  12.9927509  52.6274197  37.1121017  12.2924826  52.8946955
  37.1891274  13.7836918  52.9470307  48.7705333  12.6869963  45.8849100
  49.4749892  13.0719549  45.3023359  48.0213583  13.2739141  45.6842768
  49.7543550  19.4654321  58.2648007  49.1030125  19.3958616  58.9868490
  50.4250075  20.0540028  58.6800418  64.0256832  13.0741564  47.1837916
  63.1087909  12.7124471  47.2765773  64.0179624  13.7880007  47.8494010
  49.4023390  17.1287498  56.7432797  48.7421953  16.4970426  57.0361045
  49.3833996  17.8026073  57.3969978  50.7878554  14.4474176  60.8432862
  49.8642110  14.7248429  60.6431661  51.2916913  14.9767728  60.1795136
  55.9836408  13.1470856  51.1148316  56.4100068  12.8434787  51.9472455
  55.2299693  13.6241936  51.4788547  65.0540440  14.8899442  57.5764376
  64.5910427  15.7736309  57.7476812  64.6294318  14.6899148  56.7098839
  49.9865874  16.0174971  47.8631139  50.2983144  15.9374056  46.9588972
  49.5044112  16.8946114  47.7637027  67.1395482  18.2842621  50.9421253
  66.7612278  17.6233330  50.3303619  67.5610948  17.6887130  51.5987453
  58.2430448  15.8837988  53.5793608  57.8433215  15.9960024  52.6824040
  59.1933661  16.1650216  53.4053382  66.7695753  12.2349756  54.5236462
  66.0495056  12.2287864  53.8617103  66.6426562  11.3287892  54.9028220
  51.3400979   2.1227993  52.6621320  52.0117744   2.7921062  52.4627679
  50.4919899   2.7102095  52.6338003  39.5006980  75.4148118  59.3826262
  39.1505567  75.6446599  58.4732518  39.5241859  74.4824991  59.2996040
  30.7227155  77.4863998  43.4003505  30.1241285  78.3086230  43.3458443
  30.4021970  76.9828236  42.6613751  62.6594242  11.0599076  64.2293216
  62.5699856  10.8362941  63.2695178  63.6257760  11.1239154  64.3607908
  64.3898954   8.5043703  51.7584431  63.8380975   7.7153536  51.5915544
  63.7559466   9.0213308  52.3146222  65.6987231  13.5795852  59.9672845
  64.8269435  13.5609606  60.4456338  65.3690960  14.1569908  59.1524058
  64.0053069  10.4540081  36.3537409  64.4781388   9.6573120  36.0114070
  64.7123058  11.1014068  36.3301536   4.2012808  16.5990035  44.7806510
   4.4627584  16.6569497  45.6956274   3.2399291  16.2914756  44.8491807
  42.9857606  82.4684879  59.1177809  43.7901157  81.9172089  59.3356245
  42.9055045  82.8571664  59.9943501  54.2240672   5.2606405  41.2288157
  54.5021833   5.8404287  40.4549862  55.1249347   5.0612168  41.5492753
  49.4009777  13.7962208  49.3223927  48.5593393  13.6510041  48.8618295
  49.7013401  14.6424996  48.8669655  57.3609232  17.5112096  63.3262125
  57.0132436  17.1824944  62.4826683  58.3158055  17.5093474  63.0412044
  29.2490070  78.1450747  23.6422257  28.8883558  78.5830753  22.8853341
  28.7674325  78.7054109  24.3574909  48.1054910  22.8461833  47.6587261
  47.7150105  23.3605380  46.9968995  48.6524271  23.4639510  48.2277187
  34.6908148  70.3231107  54.0153395  34.1574967  69.5764327  54.4141960
  34.5274511  71.0093901  54.7349695  63.2034591   6.4793543  57.2870411
  63.9426044   6.6655462  56.7089545  62.9826570   5.5512822  56.9663400
  58.1515439  12.2099368  61.4184223  58.3637044  13.0094638  61.9879063
  58.1226602  12.7482970  60.5529534  57.0578936  21.5484360  64.1697427
  57.0859786  21.8569363  63.2649350  56.1882722  21.7731242  64.4473423
  52.2170310  15.6184794  49.6116039  52.1564863  14.6143130  49.6796503
  51.3321660  15.7375344  49.1420399  35.3828099  80.0309276  60.1474273
  35.2103497  80.9692776  59.9820702  34.6002685  79.6941316  59.6612853
  63.8621296  16.5340106  45.5218511  64.7234191  16.1063488  45.5935177
  64.0052287  17.3118354  46.0800780  59.8877985  20.2945234  54.0893855
  60.3581180  19.8183342  53.3613566  60.5869378  20.2734306  54.8042159
  54.0377671  15.8804453  45.7061967  54.8812852  16.2455020  46.0441639
  53.8520134  15.2230344  46.3861835  60.6533722  19.1577989  49.6686913
  61.3495822  18.8381052  49.0594729  60.3810496  19.9453437  49.1453546
  56.7236151   6.4356521  49.2333206  56.4742699   7.3218144  48.8344868
  57.7183539   6.4597235  49.0210665  54.2257746  10.4190645  42.8983049
  54.1909292  10.9780495  43.6971145  53.8790042   9.5583543  43.2035989
  27.5536695  73.1231991  50.7410157  28.2273239  73.5418921  50.1666167
  27.0823335  73.9584520  51.0546760  54.1620471  21.0157849  61.9156452
  53.5067703  21.5699150  61.4634825  53.6872043  20.5081280  62.5715398
  72.9483140  33.9106515  43.0183644  73.6491003  33.3266312  42.6921924
  72.4446078  34.0623605  42.1873988  65.6856215  22.0754836  51.9310232
  66.1976410  22.4990200  52.6164852  66.0555080  22.4104220  51.0963270
  67.4897479  40.8608091  47.5848273  67.3047859  40.7341451  48.5460492
  67.5643628  41.8406134  47.5139224  71.4184634  26.7240563  43.9285862
  71.1827628  27.5928124  43.6030742  72.1671697  26.4625552  43.3771733
  64.4476707  25.8783185  58.0995618  63.6337903  26.0011238  57.6096701
  64.2740911  25.0375529  58.5642949  72.5862614  17.7425532  59.8491969
  71.6009843  17.8541573  59.9743269  72.5870193  17.2137093  59.0549961
  68.6135909  23.4748017  51.6221741  68.6287134  22.4967135  51.8918511
  67.8672695  23.7587891  52.2357848  71.2719893  38.3277689  53.2911989
  71.9726877  38.9375963  52.9599906  71.2264852  38.5490284  54.2262331
  72.2235033  25.4770748  50.2495693  72.2869227  26.0976454  49.5577882
  71.6440830  25.9345279  50.9123512  70.6325791  35.4959852  49.3878782
  70.9646004  35.3845776  50.2589454  70.5302830  36.5025384  49.3921788
  67.9171569  33.6014100  48.5163284  68.8193484  33.7849093  48.8371673
  67.5679312  34.4976104  48.5954447  67.4549713  34.5048112  53.0486189
  67.6211374  35.3163329  52.4150339  66.5206821  34.3300659  52.7740237
  77.8158090  35.1292462  45.4781110  77.1507996  34.7543755  44.8828077
  78.2643541  34.2311173  45.7621974  67.7494735  15.0125418  60.8175444
  67.1316745  15.3487272  61.5099102  67.1979942  14.2673560  60.4777342
  72.4759076  28.5062455  50.7301086  72.1930016  29.1401427  50.0867626
  71.7082773  28.2970790  51.2876573   0.0627233  35.1725191  68.4533629
  -0.4557564  34.3784875  68.2005504  -0.5117467  35.8562999  67.9266505
  73.6165934  35.8529831  50.1953234  72.9693339  36.1342017  50.9197234
  73.3121105  36.4172165  49.5273438  71.8948313  41.5272936  61.7958729
  72.1205044  41.4774999  62.7632827  72.5119978  42.2854156  61.5601972
  63.9014697  14.4575618  55.3000033  62.9117565  14.2287927  55.1363518
  64.1940245  14.4893965  54.4134934  71.6011949  29.3147473  34.6364728
  71.0157522  30.0892199  34.3998870  72.3752039  29.8303381  34.9547303
   2.2717827  28.3348535  50.2971167   1.9128571  27.4108702  50.3884129
   1.6853762  28.5936943  49.5417022  76.6554425  20.1952832  44.3089543
  77.3281885  19.4473499  44.4316291  76.6728370  20.4912309  45.2406208
  66.1509602  38.9349559  40.4589846  66.4815078  38.0034512  40.3923698
  65.8439114  39.0923995  39.5395178  71.7032689  30.0424250  44.9951351
  71.8013654  30.2008571  44.0095943  72.4522649  30.6028663  45.2746598
  70.0723919  28.9061243  46.9142829  70.4747041  28.9856613  46.0558027
  70.3344176  29.7838959  47.2979019  66.9966773  37.6576535  54.0484824
  66.5297734  36.9820151  54.5650764  67.2011759  37.1248375  53.2739676
  70.7960089  22.5192019  42.9180992  71.4853735  21.8571992  43.2169809
  70.1029587  22.2745680  43.5908383  71.3927746  34.5182604  45.2208850
  70.8271866  35.1628323  44.7545246  71.8998550  34.1734878  44.4281779
   2.0238423  31.9563561  52.1583132   1.2896633  31.3231332  51.8521026
   2.6777042  31.6920432  51.5025397  69.0262147  51.6918177  50.3201548
  68.7422166  50.7109526  50.2054183  68.1543747  52.0960019  50.0628693
   1.1455164  19.9313294  51.3399225   1.7804259  19.3495634  50.8862510
   0.6119796  19.2810935  51.7327206  68.4061383  36.5389539  58.2444067
  69.1762824  36.0491390  58.6340753  68.4028420  37.2542509  58.8708483
  74.9631253  30.8279622  37.9725412  74.7249055  31.3778826  38.7670606
  75.8790970  31.1387369  37.8068445  77.5279074  44.3011159  49.8456927
  77.1536817  44.3012976  48.9499552  78.1543924  43.5851744  49.8909470
   0.0645503  41.2463515  53.2570652   0.1275214  41.1191254  52.3221634
   0.9885464  41.5202904  53.5215568  74.6931064  38.5736847  50.3587818
  74.6394137  37.5986037  50.3431815  75.6556450  38.6638896  50.2323697
  62.2322160  41.8935761  52.4871691  61.7064418  42.6478413  52.2508411
  63.0335111  42.2998586  52.8613575  79.2336770  32.8384316  45.6031477
  79.0186861  32.2075180  44.8542102  79.8863829  32.2485592  46.0334983
  74.0889217  42.2311904  35.1804785  74.2992422  43.1587471  34.8707314
  73.0945750  42.3017782  35.1255286  69.5266099  39.8117310  56.7149886
  69.5683846  38.9871692  56.2161079  70.5067259  39.8994325  56.9741692
  26.0550379  72.2087706  14.0466202  25.3211210  71.9174050  13.4727556
  25.9347589  71.6578760  14.8651780  74.2229214  43.3938746  48.7590188
  74.0106936  42.4641239  48.9226338  75.0651481  43.3155004  48.2950688
  63.2448961  33.9488898  54.6051778  62.3609878  34.2753049  54.8305524
  63.3496748  34.1786477  53.6584588  63.3227385  39.5288854  51.6963440
  62.7766762  40.2616068  52.0840821  63.0836167  39.6217413  50.7680496
   2.5717609  34.3221283  51.1078072   1.8880512  34.5477530  50.4410711
   2.0153681  33.7545792  51.6748376  66.5768611  52.9654917  41.3045211
  66.1698146  53.7444060  40.8440918  66.9257970  53.4535195  42.0765610
  65.2694869  39.7192073  45.1680452  65.9725117  39.6335594  44.5137230
  64.6618690  38.9689274  44.8706248  74.6239669  37.5386439  42.1737324
  74.2183178  38.3651177  42.5092026  74.7189436  37.0209954  43.0124587
  72.4745410  42.6038728  52.0484976  71.5876343  42.3876252  52.4336755
  72.1653060  43.5131799  51.7143917  70.7717564  40.2475902  45.8311826
  70.0328482  40.1929792  45.1880785  70.6082306  39.4891836  46.3979118
  70.5984171  28.1727084  37.9380851  71.5406293  28.2824880  37.7366956
  70.6102183  27.6385526  38.8077598  76.5683986  49.8174876  43.3176932
  76.7565628  49.3075746  42.4764983  77.1762778  49.3348476  43.9041820
  67.0046254  36.2818301  48.6104923  66.6113386  37.1090417  48.2748930
  67.3965577  35.9449626  47.6981154  68.2488061  40.3247483  53.3717953
  67.4304839  40.6180785  52.9056453  67.9746051  39.3731102  53.5257612
  71.4572455  36.1753532  51.7512065  71.1900361  35.3638730  52.2069465
  71.4609330  36.8606617  52.4639825  67.3631937  34.5295593  60.3272177
  67.3502906  35.0840132  59.5407725  68.3051762  34.6066380  60.6443475
  70.0600856  35.2208914  64.5078657  69.3809552  34.6118742  64.0701457
  70.8711678  34.6751007  64.4063537  77.1753739  41.5980538  37.9104109
  76.5952980  42.0388769  38.5352963  77.9623394  41.3274778  38.5181293
  71.7696144  30.8392933  48.6530718  70.9315103  30.8748905  49.1605268
  71.7599526  31.6830940  48.1861956  68.7593055  28.5142288  50.2149828
  69.4720294  28.6795129  50.8872931  68.5788678  27.5721311  50.3561716
  76.2501631  43.9263504  47.1958222  76.7862604  43.4989178  46.4375767
  75.6356872  44.3994404  46.6610862   1.4394233  31.3766410  47.2671593
   2.3448634  30.9557893  47.3802813   0.9379648  30.5720940  47.7073009
  64.4969589  19.4188412  58.9599425  65.2739780  19.9717259  58.7324337
  64.0081619  19.9516098  59.6092249  69.4344543  17.0852774  59.8152978
  68.9812772  16.9733703  58.8983717  68.9907936  16.2686947  60.2280772
  63.8236927  38.4972613  55.7182915  64.2997613  39.3361313  55.8321981
  63.6027028  38.2432798  56.6306277  65.9282682  41.5076225  36.4269382
  65.7762392  42.4234286  36.0144365  66.1641157  41.0057072  35.5979579
  72.9471650  37.4024965  47.7417549  72.1597230  37.3321601  47.1960522
  73.5461477  37.8422600  47.0906351  77.4088240  25.5793118  52.3635684
  77.3682063  26.2235791  53.0975891  77.5690744  24.7504695  52.8796950
  60.5526504  13.2697104  52.1729896  60.2822438  12.4090000  51.8047269
  60.5625761  13.7767955  51.2773541  75.5167082  30.5641472  50.0012895
  76.0408439  31.1501544  49.4533289  74.9120191  31.2590213  50.3909645
  73.1076099  41.8124786  57.8198472  73.1467371  40.9518436  58.2330247
  72.2634923  42.1603897  58.1102493  63.7604326  29.6625454  56.6834673
  62.8479511  29.8348389  56.3864939  64.1369840  30.5998795  56.6686052
  76.3244557  28.7483154  44.3381853  77.2087167  28.9061661  43.9485838
  76.0659091  27.9426056  43.8301377  63.1032833  44.1945659  59.9440821
  62.2908157  44.0782902  60.5149990  63.3820316  43.2188701  59.9227687
  73.0234368  30.4403657  52.9379985  72.7982265  29.6112636  52.5042812
  72.2673794  30.7455754  53.3574205  72.7245522  32.3536471  39.6219611
  72.2587041  31.5646783  39.4589900  72.1906593  33.0095833  39.1335196
  70.4392959  24.7475698  45.7399505  70.7920329  25.2767635  44.9792863
  71.2731055  24.6325477  46.2257994   6.1475933  32.2178904  41.5254124
   5.3297379  31.9482729  41.0231569   6.3626732  33.0683986  41.1651792
  78.8108212  35.8123436  54.7249828  79.5841595  36.3029685  54.4692213
  78.6073447  35.2770165  53.8769122  72.0762325  32.6324605  35.3317781
  71.0678420  32.6354894  35.4229984  72.1784974  33.2595998  34.6115181
   3.0024012  37.5820912  41.6860794   3.1890786  38.0267284  42.5784411
   2.0497948  37.8765271  41.6516691  63.5322291  34.6233870  68.6259570
  64.1548792  34.0867820  68.0199940  63.6668574  34.0231897  69.4758113
  74.7940726  22.8093926  43.2529524  75.5546271  23.3032115  43.7192909
  75.1763322  22.8200964  42.3275423  67.3949096  17.7358602  65.3733035
  67.3235347  17.7027134  66.3684657  67.1752770  18.7112950  65.3207158
  79.2111781  39.9957000  50.8618552  79.6361678  40.3395110  50.0363736
  78.4589644  39.5357630  50.4288010   2.9573640  42.6647930  50.4515220
   2.1392889  43.0350690  50.1103783   3.3422707  43.3574214  50.9849798
  15.0686906  34.3842709  50.3887962  15.4094353  35.2917927  50.5315534
  14.6082606  34.2465122  51.2370056  72.5839546  47.5060223  55.4342013
  72.4058609  46.6286708  55.7678316  71.8017960  47.9643706  55.7912554
  65.4208038  58.4223559  57.4198501  64.4450853  58.7237901  57.4895440
  65.3094517  57.5214686  57.8499293   4.1310825  56.0268001  46.2328482
   4.2296953  56.3417982  47.1969777   3.1432504  55.8179345  46.3140586
  68.8711975  42.5010893  50.6816832  68.5596345  41.5634412  50.5123481
  69.2187163  42.4238349  51.5985207  77.9474057  44.9796167  54.9060722
  77.8458691  45.9272922  55.1297173  77.2643458  44.8396682  54.2565353
   5.8066591  50.8389470  51.2286815   6.5130120  51.2588127  50.6866841
   6.2463688  50.0736856  51.6036881  70.6478973  68.5833778  27.9789406
  70.1313018  68.9488385  27.2091849  71.1965344  69.3712500  28.1373030
   6.2619640  42.3190399  53.5652157   5.9623961  41.4304942  53.8386117
   6.4471953  42.0818234  52.6053014  16.1795164  59.5950243  53.1152066
  17.1172575  59.7221764  53.3386653  16.2746548  59.2327903  52.1694689
  76.0040685  41.7027226  41.2180535  76.4920437  40.9283598  41.3146674
  76.6212203  42.4084066  41.4151999   1.1642238  41.3706527  45.5260201
   0.2271598  41.2507011  45.2179978   1.5474318  41.5003974  44.6524498
  71.7494437  39.7229720  42.0617317  70.9075748  39.7457498  42.5256184
  71.5532088  40.3760799  41.3294919  72.4926031  45.9609745  63.1231293
  72.6449193  46.5268257  63.9437651  73.2292578  45.3181533  63.3762964
  70.3141073  49.4033010  34.7865330  71.0677692  49.6596761  35.3766375
  70.8079339  48.8140078  34.2230630   4.0396258  40.4598473  40.3689786
   4.8686400  40.6502862  39.8305197   3.6051467  41.3468857  40.2141690
   1.0628716  43.9995647  49.0618558   0.5002588  44.5942032  49.5659895
   1.4141057  44.5971224  48.4095429  75.3792296  52.5826714  39.6388028
  75.9768194  51.8626136  39.5636106  75.9762522  53.3373978  39.8800074
   0.9924352  40.0493111  64.8478911   1.3891730  40.8192068  64.3992831
   1.8093179  39.4628628  64.9237521  10.7708919  49.3159775  59.5742403
  11.5403779  49.6590795  59.1033159  10.9979479  49.4249369  60.5102985
  48.7181053  16.2008488   1.6750926  48.6779897  15.3198512   1.2492388
  49.4625398  16.1096315   2.2484597  75.5023635  34.9425073  48.3882074
  74.8880030  35.1374949  49.1266906  74.8579739  34.5695228  47.7591463
  10.3068379  57.8782503  56.1134597  10.9085211  57.5365841  55.4033376
  10.1775070  58.8138333  55.7695320  73.8235299  34.0427289  57.4642729
  73.3887131  34.8519111  57.1608817  73.7714270  34.1277153  58.3993998
  69.6703190  38.6408702  50.7980488  70.4204494  38.7969664  50.1831862
  70.1278856  38.6449355  51.6794097  74.4540601  48.1578696  53.5783037
  73.9038564  48.0093590  54.4125540  74.7764372  49.0936775  53.8316473
   2.9325020  44.9642336  32.4471622   2.7920866  44.8718178  31.4672763
   3.8911634  44.7585375  32.5127565   2.3963685  51.0085771  38.4070326
   1.7597569  51.7663923  38.3923941   1.7310129  50.3081963  38.5615518
   1.2630993  55.9288924  43.2443811   0.2471777  55.6939072  43.3490270
   1.4678890  56.1731229  44.1342095  58.1963078  42.4286152  52.7394133
  57.2464234  42.6277262  52.6556252  58.5963812  42.9856503  52.0271942
  70.0197242  48.7473163  47.9982601  69.2947325  48.4176740  47.3981080
  69.5144413  48.8975726  48.8085059  76.1490023  54.4646103  42.8691686
  75.2737571  54.9400794  42.8514544  75.9134045  53.6753046  43.3612557
  51.9995396  57.2437550  55.6373645  51.5720484  56.6657949  56.3061342
  51.9440668  58.1255659  56.1975664  78.0507244  50.2958122  47.2821195
  78.5788611  49.5633749  47.0769834  78.7645265  51.0357311  47.3575980
   5.2493203  42.0618748  56.0468749   5.6297628  42.7018005  55.4094696
   6.0869925  41.5588997  56.2193544  60.2378785  55.6375430  50.8967597
  60.0442731  54.8091998  50.3798641  59.8950336  55.4533062  51.7393897
  76.7340692  40.1490780  57.1716086  76.4458132  40.8505972  57.7036139
  77.6256602  40.4196133  56.8131909  70.0378098  37.8678117  64.2693203
  70.9742765  38.0588572  64.2124597  70.0780220  36.9438452  64.6876734
  74.9933886  54.6733922  52.8563265  74.5249653  54.0717066  52.2135709
  75.5888979  53.9865971  53.2803061  54.6033298  21.7057137  -0.0825255
  54.7550364  21.5902708   0.8913144  53.6483972  21.9369128  -0.0710435
  69.3875354  65.7920245  61.0340703  69.2622737  66.4774516  60.3623200
  70.2391215  65.4403903  60.8112014  72.6053443  47.1862670  58.3731066
  73.1892327  46.6119142  57.7434166  72.6259657  46.5637978  59.1439040
   1.3784073  38.1843672  51.9708711   1.5489732  37.8587833  51.0272023
   0.5642885  38.7087029  51.7333911  77.7550489  43.9651376  44.1651321
  78.3057686  44.4492151  44.7841664  77.1621516  44.6843236  43.7794159
   8.5005571  44.1038405  44.3916013   9.4382087  44.3901660  44.6641778
   8.0009718  44.8218750  44.7487387   0.7024014  47.6420842  43.2438309
   1.6012776  47.7087275  43.7511675   1.0079929  48.0741832  42.4285759
   6.8750909  53.6435662  33.2396713   6.9395621  54.2924456  32.5081851
   7.8458039  53.5026771  33.4245202   0.6984986  48.6781816  47.1401872
   1.1127193  48.2059434  47.9079337   1.5110974  49.1383706  46.7828840
   1.6318350  34.6577617  48.2187082   0.8567967  34.0570189  48.3933479
   2.3316394  33.9814763  48.1461689  12.1651278  54.1518821  49.0700599
  11.5243525  53.6641012  48.4566768  11.8817199  55.0745317  48.7549149
  68.3960077  37.4244953  37.1756153  68.2175059  38.2648449  36.7596421
  69.0130377  37.6726122  37.8674797  74.0274147  36.1084716  44.5006716
  74.0352660  35.4125365  43.8072209  73.0695754  36.2268760  44.6509477
   0.2028728  28.9062215  48.4953274  -0.2317840  28.0391650  48.6941329
  -0.2316209  29.0364287  47.6107421  68.1308742  44.7385120  39.8316409
  68.0258871  44.6473905  38.8756349  67.6818073  43.9711459  40.1792843
  59.7201238  54.2089421  39.6508177  60.3480575  54.0112608  40.3736450
  58.9139190  54.1423970  40.2456401   0.6531606  46.7779306  51.0756227
   0.6356177  46.4118875  51.9539453  -0.1190261  47.3952762  51.1650343
  12.2365865  48.9754277  32.3369189  11.8653712  48.0653455  32.1198650
  13.1378205  48.8306535  32.2890710  66.2473893  46.6821847  54.7709466
  66.9403211  46.7960772  55.4288598  66.0068632  45.7448226  54.8857994
  71.6373541  39.3269745  49.2640183  72.0703369  40.2051132  49.1384077
  72.2158308  38.8028991  48.6582811  70.1178505  42.1977767  53.0029630
  69.4208710  41.6737861  53.3420415  70.5406645  42.5381119  53.8342822
   3.7665366  38.8249625  43.9010917   4.7567406  39.0498670  43.8761985
   3.7566556  38.3062857  44.7186636  77.3600011  47.8551679  41.5656357
  77.1626701  47.1033112  42.2596337  77.8400990  47.2972195  40.9323908
  78.6045344  34.6449241  52.2613363  78.2548062  35.5394895  51.9690532
  78.7616242  34.2703314  51.3519832   7.0495058  34.6544090  56.0378464
   6.4809280  34.1801787  56.6887360   7.7896727  34.0288571  55.9592619
  76.3162878  42.2730958  54.3694926  76.0256095  42.2123940  53.4280424
  77.3106248  42.2530527  54.2686952  63.5393764  39.6735716  48.8046532
  64.1507402  39.5420440  48.0043145  62.9216344  40.3109940  48.4171934
   0.8128508  61.2455801  55.6104117   0.6601177  60.2876018  55.4600544
   0.2663174  61.4339052  56.3880680  72.0736030  45.0742816  51.3027032
  71.3790638  45.6966593  50.8922399  72.6759959  45.0973370  50.5168001
  66.6976906  42.6700334  43.4605405  66.1283971  42.0910176  43.9763765
  66.7382822  42.2548858  42.6105987  77.2068088  38.3835484  38.7393232
  76.2656236  38.2106792  38.6059690  77.2460526  38.0764648  39.7315851
  77.7649148  38.1531471  35.8992753  77.1325333  38.8814956  35.7713121
  77.6801030  38.1081926  36.9018608  64.9046354  42.8173964  53.6245354
  64.6118545  43.5798800  53.0866508  65.3425343  43.3384567  54.3369974
   3.1589529  55.2371158  55.2913385   3.8851883  55.0659848  54.6956233
   3.0814234  54.4904476  55.8961097   3.6067785  61.9640991  34.7298863
   4.3603842  62.4477990  34.4204321   3.7843422  61.8804542  35.6880249
   1.1056746  56.0096851  46.1805292   0.5614708  56.7621472  46.3566320
   0.7865598  55.4284257  46.9465504  70.3931304  52.6801900  44.0722770
  70.0196657  51.7792825  43.8626254  70.8823580  52.4890941  44.9021221
   1.8018333  46.4146374  57.9336200   2.0500635  47.1888883  57.4055483
   2.6586829  46.0798279  58.1358574  69.5397596  48.4734691  61.3830092
  68.6547288  48.9377158  61.5881532  69.8063197  48.9578251  60.5905967
  73.3476027  56.9927780  49.5844754  73.6711078  57.2017727  50.4156366
  73.0776445  57.9187989  49.2132818  59.5814794  48.2475229  38.3748893
  60.4884392  47.9906306  38.3224681  59.1889332  47.8911690  37.5481452
  70.4806473  32.2919128  46.6697410  70.8950915  33.0409424  46.1853562
  70.5912489  31.6165938  45.9683608  64.0683984  41.7192384  60.3628658
  63.9805392  40.7096275  60.3737723  63.9967517  41.9192767  61.3090811
   2.9030724  45.8031741  41.0595153   2.3974787  46.6104476  41.0546098
   2.9176192  45.5363385  42.0061093  73.8798954  53.0840303  50.8508477
  73.3318852  53.2986798  50.0293594  73.3735931  52.3158962  51.1437562
  79.1105594  40.4126518  39.5229168  79.1676411  39.8711711  40.3640449
  78.6201872  39.7596103  39.0130344  74.3524809  57.5990355  58.8260123
  74.5203414  56.8141298  59.3857908  73.8013133  57.2166437  58.1380703
   2.8463816  50.1246819  45.6655910   2.7286434  50.1304644  44.7294183
   3.7854244  50.1034607  45.8619849  70.5747752  43.2377795  41.3647777
  71.5065787  43.6430977  41.3910417  70.1631778  43.7902247  42.0697338
  76.0342775  56.1713886  48.5812249  75.8076167  55.8310216  47.7062781
  75.1318308  56.1241025  49.0119984  76.3251368  64.3916184  53.1383447
  75.4066433  63.9957427  53.3087883  76.8230423  63.8096211  53.7490581
  70.1384836  47.2076987  44.2400919  69.6366320  47.6574321  44.9878570
  70.6184517  47.9168250  43.8960490  52.0141442  10.7400640   5.1766321
  52.1934018   9.9363496   5.6619283  51.8966793  10.3532974   4.2764794
  69.9032600  46.4542709  58.6014523  70.4597591  45.8352703  59.2011371
  70.6273152  47.1068607  58.4622176   0.4363366  49.7232392  54.7600430
   0.1827221  50.5894794  55.1488829   0.7655651  50.0292447  53.8634489
  70.2334132  36.5912993  43.7868049  69.3653613  36.1906226  43.5593172
  70.4092310  37.0867698  42.9660638  76.9273324  66.1404018  56.9822036
  77.2503540  66.3756252  57.8968696  77.1443557  65.2363197  56.8778861
  68.2458920  35.2507081  42.8304766  67.4742150  35.8423167  43.1417615
  68.1888486  35.4544073  41.9014791  75.2407892  46.1639645  57.9332718
  75.5832914  45.2432191  58.1053107  75.8973421  46.5605069  57.4072335
  72.3409463  37.2655347  32.7517896  72.4033175  38.2305684  32.4683390
  71.7037802  37.4119105  33.4891119  11.6511445  59.5272844  54.1780446
  11.6313584  60.3395524  53.6840627  12.6547603  59.3896433  54.2408451
   0.3457202  52.1397507  47.3062740   1.0855406  52.5523504  46.7895382
  -0.4164661  52.5741475  46.9053240  74.6192680  37.3644937  39.4349686
  74.7038647  37.3789962  40.4061792  74.0898359  38.2046948  39.3294650
  73.1941037  43.4489877  42.5060936  72.7610146  44.1496954  43.1345734
  73.0326189  42.6615808  43.0430339   4.1179017  62.7238920  44.3561460
   3.8103828  63.1955892  43.5884948   3.6405504  61.8647667  44.3783500
   4.1425165  42.2170795  34.9807056   4.0060242  42.1199324  35.9666652
   4.4102829  43.1797121  35.0188084  77.9129957  51.4720621  39.7596054
  78.6362837  52.0779851  39.4393229  78.0494121  51.6317334  40.7372995
   1.7045891  44.2720141  43.7099032   1.2301597  43.4050874  43.6506509
   1.0098924  44.8767685  43.9478806  70.3398989  38.4670317  38.7446164
  70.2478627  39.3882796  39.0438850  71.1996663  38.5757511  38.2288797
  75.9804362  43.1219967  31.4633435  76.8268457  42.8656002  31.7851928
  76.0225833  44.0723300  31.3976303  70.4659173  42.8524584  47.9668564
  70.4954674  41.8475732  47.9441932  70.3284100  42.9963103  48.9293420
  77.7782163  38.7405165  53.7608049  78.1782395  38.8900759  54.6633298
  77.9101436  39.7136888  53.4520700  75.3559694  42.6997544  51.9011671
  74.3767798  42.6869532  51.8389423  75.5918978  43.6075101  51.6190009
  72.3263717  49.9770884  57.1679031  72.5871872  50.4731421  57.9782722
  72.5847631  49.0829985  57.3055818  72.8585567  34.1719441  47.5875438
  72.4012816  34.2769123  48.4302475  72.2339597  34.5417217  46.9682303
  74.9550938  44.8339358  41.0946052  74.3529562  44.3322833  41.7259757
  74.5919759  45.7157888  41.0458231  68.0664052  30.7490268  59.1742893
  68.3712850  29.9608414  59.5646847  67.4002456  31.0776123  59.8232281
  72.7729409  48.0908297  47.8202178  71.9020723  48.4500708  48.1236617
  73.3423275  48.4681949  48.5073034  79.1983988  65.9963537  52.2082424
  79.8076336  65.3863176  51.8372070  79.7228343  66.7825489  52.4671389
  75.8832918  52.2149114  44.3435748  75.8085197  51.9383865  45.2781890
  76.0063928  51.3715579  43.9212601  69.2916234  55.5032990  45.3914971
  69.2008658  55.2541996  46.3548745  69.3618391  56.4959760  45.5554074
  71.0214142  54.2257586  29.8557783  70.8002058  54.1724551  28.8479313
  71.9704658  54.3317932  29.8259129  72.4961912  36.8227271  57.4776229
  72.0723607  37.1149858  58.3182624  72.5382590  37.6626470  56.9847697
  71.3944351  51.6070295  55.0637526  71.6650316  50.9876849  55.7908743
  71.1430511  50.9345572  54.3990775  76.6032786  45.1729090  52.1955497
  76.4974486  46.0908342  51.9618748  77.1017223  44.8439385  51.3870811
   4.3405618  33.7993931  49.2563837   4.1852761  32.9008281  49.5498040
   4.0424887  34.3542256  50.0099559  77.9654442  33.0222381  59.8116932
  78.1666084  32.4731495  59.0172721  77.6626168  33.8373428  59.3761010
  66.5771783  43.5952822  48.1197810  65.7340289  43.4270650  48.6388721
  66.9755615  44.2507348  48.6652000   6.6959363  50.6947180  38.1493912
   5.8987580  50.3291675  37.7201738   6.3538506  51.5675157  38.3978642
   4.1779580  50.3019157  42.8513744   4.5473596  50.9497676  43.5097028
   3.4169839  50.7604761  42.5121433  64.5580486  49.0889224  42.9203494
  64.8945212  48.7325941  43.7910683  63.8219012  49.6012668  43.3226063
  79.3094827  43.6878553  57.0394745  78.7165417  44.1852105  56.5248165
  79.3691694  42.8081019  56.6546660  71.2221796  34.6945830  40.8519181
  71.1817123  35.6503156  40.8628898  70.8800620  34.5182567  39.9319875
  64.9706868  40.8318188  56.0901958  65.3704478  41.4293079  56.7027156
  65.2303946  41.1433390  55.2334361  65.9948801  38.4264928  47.3475376
  66.4306525  39.3375265  47.4187269  66.2067267  38.3069369  46.3834993
  70.3304527  28.4026776  52.4380756  70.0809541  27.5024659  52.6999762
  69.7011079  28.9388570  53.0185332  73.9815392  32.7049630  50.9130363
  74.1611919  33.7015857  50.7398341  74.0499897  32.7624137  51.8547175
  76.0175656  45.9567324  36.7007196  76.9204550  45.5853474  36.6237016
  75.5587444  45.2348417  37.1696616  71.3070660  47.0903173  36.8258062
  72.1975595  47.0018088  36.4693191  70.8062570  46.4571535  36.2531733
  69.9767240  47.4123982  52.0843006  69.8991987  46.7685368  51.3598751
  69.0576562  47.4013903  52.4063843   0.5626826  52.4619258  59.6202241
  -0.2204461  51.8954281  59.7596455   1.3172185  51.8029014  59.6712486
   3.9848901  52.9473284  43.8876790   3.8733094  53.3443686  42.9984971
   4.6945537  53.5346476  44.2593766  77.2113621  45.4756231  59.9426869
  77.7611020  45.7138116  60.7309881  77.6871197  45.9106928  59.2252240
  75.1113587  50.6639190  54.2954164  75.4343802  50.6691217  55.2292175
  75.6210464  51.2793980  53.8342340  68.9161454  59.1379863  42.7063945
  69.1173975  59.8009428  42.0252768  69.3743325  58.3533479  42.3223709
  75.7922381  48.7516251  39.4724561  75.4251654  47.8336597  39.3165811
  76.2024354  48.5931493  40.3430442  62.3114872  25.8320987  60.7039974
  62.3980890  24.9080790  60.9972875  61.3174469  25.7384972  60.5098709
  72.5747228  59.4393552  60.1312162  73.2317016  58.8368960  59.7478384
  72.3847918  60.0715468  59.4323744  71.8283358  32.8924432  54.8213688
  71.6264358  33.5896921  55.4433197  72.5758421  33.3086441  54.3327309
  72.7407075  55.4964290  57.8782022  73.3925119  55.1631429  57.2457625
  71.9203564  55.3056700  57.3790958  48.9118958  19.6264392   7.1551256
  48.6667030  19.1556101   6.3219454  48.2593000  20.3280758   7.2001409
  79.4246359  39.5154524  33.8790144  79.9932737  40.0848911  34.4592287
  78.8072663  39.1932812  34.5925412  75.6313209  47.5158176  51.3325533
  75.0538475  47.0431560  50.6600021  74.9409616  47.6862471  51.9860684
  79.5288801  61.6648874  38.8216809  80.1733217  60.9378934  38.6237209
  79.0875210  61.2736557  39.5983667  73.6083562  62.4440164  53.2041445
  74.1270736  62.0243309  52.4161039  73.3884007  63.3189163  52.7852689
  68.0325744  58.8850278  57.8244410  68.5745386  58.5806219  57.0541350
  67.1305154  58.6110881  57.5474271   3.2215477  60.2389943  40.7504967
   2.4340385  60.6312678  41.1997455   3.2219949  59.3004346  41.1030157
  75.7286822  62.2404164  33.1721745  76.1936683  62.2242414  34.0209876
  76.4139843  61.9668216  32.5939306   5.3479442  65.8419061  39.6851167
   4.8882136  65.3652262  40.3348865   6.2746409  65.8897055  39.9819433
  77.4246115  60.4956594  48.4259098  78.3878289  60.4478361  48.2110353
  77.3746537  59.5552555  48.8455827  76.1002791  66.3625125  45.6775456
  75.6694799  66.2126329  44.8161437  75.5930924  67.0987144  46.0457497
  76.7596219  52.9295027  54.3198311  77.2309718  53.4072900  55.0180904
  77.4116448  52.3891994  53.9096567  73.0979946  58.6967183  42.8741849
  74.0636889  58.8990099  42.6731883  72.7434861  58.6016264  42.0118269
  71.1441306  53.7319793  38.0950141  71.0881704  53.1789056  38.9336611
  72.0166708  53.3935407  37.7503806  77.7577500  62.5040082  54.5103519
  77.3484951  61.6428694  54.7895386  78.3662892  62.1083371  53.7994923
   3.9582832  56.9009717  48.8600214   4.7910412  57.2827692  49.3207353
   3.3961319  57.6706907  48.9980702  22.4486391  -0.0723106  32.6383838
  23.0534056   0.3859641  32.0632871  21.5379447   0.1047946  32.3393865
  73.4160985  62.7987653  39.5074691  74.0662151  62.1305456  39.5672739
  73.3889338  62.9814920  38.5325594  73.4016116  68.5119289  43.2522127
  72.8768125  69.2752032  42.9594776  74.2960703  68.7682406  43.0611409
  68.7741712  54.7031206  47.8255715  68.0480152  55.1973811  48.2863121
  69.2373850  54.4221288  48.6352165  46.6932837  29.4781201  -4.2623930
  46.0184320  29.7978865  -3.6336579  47.4070888  29.2822053  -3.5182952
   3.7508887  52.9264461  48.8123603   3.4202685  53.0075161  47.8388888
   2.9473749  52.6122519  49.2187950  55.5385886   6.3784030  27.1663532
  55.7115277   6.8866030  27.9825409  55.0401343   6.9766761  26.6118487
  32.1794265  76.2257072  21.0787159  31.8433528  76.3785424  20.1905725
  32.3145449  75.2316518  21.0020286  38.2148434   6.1789869  39.4141674
  39.0205516   5.6503102  39.3714482  37.6710399   5.6370026  38.8322949
  52.5467848   4.3802816  33.2963625  53.1939135   3.9736493  33.9588349
  52.7802651   5.3023167  33.4113593  60.5070221   7.4676063  39.0040629
  61.3562965   8.0148897  38.8654724  59.9990209   8.1661879  38.4541439
  50.2817040   3.4589243  28.6801791  49.9530637   4.2432978  29.2143535
  50.7016001   2.9819406  29.4379050  52.8582207   7.2554048  42.5956204
  52.1626089   7.3841163  41.9136160  53.4144890   6.6536965  42.1027837
  53.9186591   5.3932877  35.7967628  54.3299516   5.8377968  36.6115146
  54.5158800   5.7418526  35.1123750  48.1805303   7.5791944  42.1344078
  48.8357313   8.2213337  42.0776752  47.9762743   7.4617189  43.0446252
  44.4201902   6.6084506  51.8833238  43.5020135   6.9749255  51.9100327
  44.3334817   5.8536738  52.4954277  30.0687303  69.5367726  37.8550102
  29.4800962  68.7416229  38.1130105  30.5645933  69.5778257  38.7105168
  53.8969286   9.6609791  34.7000268  53.4778233   8.8178189  34.4815707
  53.8914680  10.1512179  33.8766800  48.2146862   2.2316424  27.0746885
  49.0890431   2.5967968  27.2568617  48.1928664   1.4520976  27.6386443
  50.6999178   9.5585539  32.4593347  50.4852912   8.6445735  32.2488533
  51.7003243   9.6029835  32.2827943  64.6835657   9.7399417  49.2108294
  64.7906284   9.2681111  50.0757112  64.0975455  10.4592862  49.5046799
  32.3135104  77.2394186  37.4367787  32.5895807  76.7594219  36.6542042
  31.4162668  76.8019508  37.5443831  54.6301931  12.8852258  22.0383315
  55.4941888  13.3622678  21.8589084  54.6589639  12.3075479  21.2716110
  50.5952502   3.8299875  34.9910803  51.1964744   4.2922121  34.3570412
  51.1168721   2.9980955  35.1123402  49.4445112   9.9441051  34.7373540
  49.9311133   9.8445204  33.8841252  50.0603628   9.3999965  35.2888487
  49.5456009   1.2174544  33.0753895  48.9761426   0.4307933  32.7601397
  49.7787948   0.8548362  33.9769244  45.9151175  14.3613273  32.8633783
  46.5839342  13.9940033  32.2592122  45.2410872  13.6058156  32.7822555
  51.0658189   8.4152242  36.5548353  50.6614464   7.5613189  36.8695574
  50.9081402   8.9952446  37.3059571  36.4009565  79.7567417  35.4480539
  35.9917778  79.2283208  36.1243193  37.3441459  79.5464011  35.6132349
  58.6392923   4.8257014  36.0426544  59.5677328   4.8334581  36.3931536
  58.7729216   5.4975513  35.3228460  64.9099777  14.9243187  34.7601418
  64.9202924  15.9149956  34.7791815  65.6840771  14.7246440  35.2734046
  33.4671454  78.8234356  47.8252804  33.3924760  77.9191214  48.3040026
  33.9427152  78.5569807  47.0531863  56.3640203  16.6117965  39.3511100
  55.6966259  16.2760225  38.7234942  55.9096421  16.6181669  40.1919443
  67.0323000  21.7238253  34.7021868  67.7838980  21.3138440  34.2701315
  66.9149259  21.1342500  35.4785862  66.4346806  15.0187463  24.6100634
  66.2556833  15.0184482  23.6156786  66.2543958  15.9350494  24.7958716
  51.9156758   3.7572308  40.2964146  51.3623175   3.7478356  41.1449145
  52.6752720   4.2035859  40.7131300  38.2323990  79.5268179  31.5347511
  38.1326687  78.9309478  30.7279997  37.3606404  79.2945112  31.9380318
  38.1456647  68.7010499  28.0923922  38.2591304  67.8214622  28.4828725
  38.6084361  69.3039625  28.7112338  73.4753706  10.4628964  42.2118323
  73.4022129   9.6850010  41.6515964  72.5684745  10.7829378  42.1511221
  71.9711604  15.0350857  19.1560924  71.7220513  14.2286021  19.6843785
  72.8174535  15.2817861  19.4832880  57.6389208  11.1963083  22.5539399
  57.2812103  10.5037488  23.2197217  57.6965117  10.6161770  21.7975608
  58.9685923   9.5719734  41.4745829  59.6324582   8.9764814  41.8998742
  59.2832359   9.5290709  40.5911861  71.1882950  13.7056651  40.9019802
  70.8758334  13.9892235  40.0112599  72.1089480  14.0517678  40.8986584
  32.6874412  76.4727800  57.0357654  32.8640908  76.5375599  56.0544695
  33.5804514  76.7489453  57.3573995  27.8277406  74.3907123  35.8372044
  27.8553624  73.6299861  36.4469243  28.5689969  74.1660221  35.2591412
  64.4818193  15.2656097  28.3261937  64.3900062  14.6923352  27.5278243
  65.1193980  14.7710714  28.8405077  52.7833753  83.7290392  46.3392629
  53.6584300  83.2936635  46.1413148  53.0981970  84.3158208  47.0560112
  46.3384709  83.2905796  40.7001706  45.5836948  82.7310904  40.4334485
  46.7482687  82.7212243  41.3896496  56.5537402  11.9964849  39.8588755
  55.7682092  12.5201975  39.4917326  57.0715370  12.8379026  40.0825644
  49.7278121  75.9423335  40.9488309  50.4617474  75.7585291  40.3468864
  50.0229512  76.7430579  41.3720737  59.3538877   6.9617319  34.4976736
  59.5522584   7.8430475  34.5209668  59.7740428   6.7241277  33.5731564
  65.4377794  11.6538485  45.2507587  65.0519354  11.9832168  44.4125789
  64.7843005  12.0684894  45.9036145  73.1852228  10.1101766  38.6373503
  73.9690337  10.7464666  38.6364247  73.4414092   9.5856854  39.4144906
  68.6659037  20.8880680  52.4728502  68.0922492  20.4323951  53.0728484
  69.5284996  20.6854010  52.8997902  62.3256837  14.1552862  35.4184247
  63.2554677  14.3544188  35.1810518  61.9482951  15.0399640  35.3916835
  55.6756637  11.8869766  48.6329628  56.4157469  12.1317649  48.0532878
  55.8422202  12.3865776  49.4070636  32.9998054  78.7231693  27.4084134
  32.8003826  77.9349419  26.8265587  32.6359814  79.4377308  26.8995735
  34.8393683  77.3673830  45.8630641  35.5943858  76.8879018  46.1554246
  35.0316374  77.5592585  44.9416075  32.6643849  76.9592882  41.0983731
  33.2565663  76.3087336  41.5914973  31.8504578  76.3834103  41.1201609
  66.6481754  23.5403076  43.6806613  67.4028048  23.3998607  44.2405426
  65.8844088  23.2330202  44.1830493  59.5624832   9.8964671  34.0688867
  59.1159911  10.1318706  33.3168915  60.1036221  10.7027679  34.2746402
  62.6712420  16.3284722  51.7914598  61.7818425  16.1182200  51.4266594
  62.9538633  17.0467018  51.2001456  68.8560609  14.6483664  35.7722347
  69.5108383  15.3230052  36.0024439  68.6684974  14.9239017  34.8593636
  58.5262963  13.7167631  40.4934325  59.1387395  14.0670806  39.8201361
  58.9806816  14.0681687  41.3452208  61.4444052  16.8767086  27.0157352
  60.9455300  16.1832872  27.4553248  61.9332625  17.3068471  27.7503078
  58.0140687   9.3356411  51.1570405  57.8304177   9.3619358  52.1526446
  57.2775438   9.7925983  50.8112877  64.1525745  18.9031885  47.0065441
  63.3185110  18.9971313  46.6099866  64.3077743  19.7665372  47.4025795
  54.9848677  18.4384007  50.3883646  54.2720444  18.2381038  51.0010675
  55.1771844  17.4805783  50.1191089  57.0566152   7.5492727  41.6891506
  56.2561884   8.1420112  41.4626572  57.6047951   8.1124736  42.1688615
  53.5238620   4.1619489  44.8909000  54.2648404   3.8711344  44.2411429
  52.8225667   3.5759053  44.6380180  61.3412940  11.4967186  19.4222081
  60.5689456  11.5952800  18.8560190  61.6154622  10.6145554  19.3240386
  47.3856899  82.0652975  28.8425027  47.5563669  82.4807630  27.9459481
  48.2646516  81.8783173  29.1393359  64.2655169  13.6310076  32.3937804
  63.6135424  14.2035292  31.9302214  64.4213983  14.2098264  33.1860920
  74.9730143  19.2938905  33.9848677  75.7731470  19.8276294  34.1826556
  75.0755621  18.5352500  34.6115628  67.6228044  11.8265923  17.3585653
  67.6512619  10.9370907  16.9268259  67.8196895  11.6170116  18.2884202
  65.3267487   8.0659103  35.7323865  64.5215920   7.7652110  35.2860492
  65.1465309   7.6655853  36.6623543  69.4967364  16.2612194  21.9218453
  69.9712624  16.8113093  21.3067704  69.2032932  16.9341606  22.5945331
  70.6918617   8.9855010  29.5510237  70.1616376   9.5833956  30.0234914
  70.0330530   8.4056216  29.0280802  64.5834216   7.2722832  32.0084052
  64.5559091   6.3069313  31.7280969  63.8789516   7.5808608  31.4565209
  40.7612541  78.0954902  32.9613365  41.7036046  77.8219916  32.8425693
  40.7373839  79.0644241  32.8034271  65.4961246  11.3644448  32.6869536
  66.1914472  11.8079797  33.2311042  64.9453533  12.1687099  32.4597934
  67.6472364   7.4839341  40.3358636  67.2989190   8.2869858  39.9843121
  68.2601708   7.1990246  39.6074847  73.0055474  23.7338277  39.0852271
  72.3692695  23.6312596  39.8418602  72.4712959  24.0141462  38.3688111
  69.4918793  21.6456201  47.4753450  70.0578588  22.3343340  47.8251859
  69.2737061  21.1801679  48.3457362  41.3647905  69.2347343  34.6043701
  40.5280406  69.6136690  34.2441637  41.1913267  68.2987306  34.4371985
  67.4402723  16.3399830  28.9624724  67.6036804  16.6780481  28.0594972
  66.5245737  16.6481330  29.0544236  59.3908623  14.7480090  25.5458138
  59.6878763  13.9225187  25.8917551  60.2611018  15.2206347  25.4923717
  55.9243693  75.5907312  28.7351854  55.7417805  74.7110659  28.3229935
  55.1297115  76.0963375  28.4535706  69.0814175   8.0174758  42.6851308
  68.4384891   7.9598136  41.9223439  68.5439549   8.5986944  43.2754111
  50.7022957  80.0208736  39.8582417  49.9878791  79.8688366  39.1564402
  51.4466278  79.6629032  39.3116564  35.5519870  73.2246258  40.7239725
  36.2663976  72.6707243  41.1494264  34.8137803  72.6367099  40.8105093
  56.2606837   9.4047296  36.1523775  55.6340000   9.4324530  36.9411178
  55.5619841   9.5412529  35.4476701  52.3943309   8.9540696  28.3520618
  52.5715649   8.5480403  27.4429111  51.4198185   9.0699126  28.1791584
  29.3745710  75.8922377  45.9640772  29.7265212  76.7819406  45.7480071
  30.2268508  75.3866278  45.9410116  42.1389489  82.3233362  37.7211197
  43.0775664  82.1613618  37.6790918  41.8418119  81.8944355  36.9088720
  31.7689839  76.5677763  59.6667701  32.5699133  76.5910276  60.2627517
  32.2000845  76.2740818  58.8625960  57.4144452  10.9618494  43.5394056
  56.6104637  10.4449032  43.3059117  57.8892574  10.9167389  42.6605490
  58.3663965  15.8854717  42.4457058  58.3600607  16.7621993  42.8970415
  57.4028862  15.7575122  42.4300686  58.4837622  17.3026763  20.9322073
  58.4769121  16.6754972  21.7270750  59.3691224  17.6612388  20.9827782
  64.2459126  12.3841862  24.1737091  63.7194185  12.5775362  23.3995686
  65.0373706  11.9695157  23.7642685  59.8091882   6.3567611  45.4511473
  59.3740162   5.5938066  44.9236568  59.7067570   7.0816300  44.8419981
  61.8614266  14.3499114  58.9921213  62.2901684  14.9405198  58.3299061
  62.1791600  13.4851769  58.6857510  39.2569965  80.6276062  41.5731417
  39.8590893  79.9299799  41.2727527  39.7786135  81.4352336  41.3067128
  49.6853440  72.2078202  24.8939194  48.9206761  71.8770226  25.3523805
  50.1414664  71.4210598  24.7105134  68.5977228  20.3260986  49.7998443
  67.7459542  19.7752518  49.9287788  68.6809991  20.5892196  50.7145478
  63.0400727   9.8157758  32.7982982  63.9341813  10.1323595  32.5250520
  63.3468486   9.2798251  33.5680895  54.0964490  13.8143245  47.4924090
  54.6326475  13.0249410  47.7501972  53.2926043  13.6327215  48.0868838
  78.1596521  15.9502446  27.0781898  78.1198615  16.8894417  27.1879904
  78.8501127  15.7828724  26.3770711  64.9812010   9.9215715  39.8259258
  65.1398741   9.0733403  39.3797952  65.9205665  10.1573614  40.1247874
  67.3354879  16.1071365  33.0112517  67.0557507  15.2522727  32.5687120
  68.1411433  16.2095709  32.4137644  32.2995112  78.5350461  30.2132147
  33.1315340  78.9928990  30.5077904  32.5726977  78.4416665  29.2752003
  65.8922865  19.2813183  38.7122324  66.5715958  19.6385687  38.0790729
  65.6669889  20.0389187  39.3000200  67.6950508  20.1828929  36.9091748
  67.8072992  19.3104141  36.4635648  68.5439756  20.5752402  36.7833973
  67.1219243  21.6064082  41.7971426  67.2057790  22.0947855  42.6527730
  66.1536382  21.6567466  41.6751865  58.8317535  15.3267915  22.8893524
  59.6772026  14.8397058  22.7451563  58.8197201  15.3679898  23.8807148
  31.4662260  71.5642564  48.1308801  31.4695913  72.1545233  47.3758260
  32.3052536  71.7958890  48.5804800  51.9739291   7.1007839  52.4736060
  52.5913669   7.2546257  51.6642273  51.2012502   7.6071196  52.1083930
  57.6976802  14.8199832  36.2497585  57.9832607  14.0010062  36.6693680
  56.7318121  14.7932183  36.3912756  64.5673754  10.1068923  42.6211545
  64.8832247  10.1243521  41.7095198  64.2101846  10.9969444  42.7638971
  38.5709527  73.2990417  29.6932288  38.0001629  74.1382757  29.8374139
  38.9976502  73.5419211  28.8300825  61.0178235   7.3517198  27.8901301
  61.5002411   6.4728122  27.7064304  61.2557660   7.8141261  27.0700466
  70.9046672  16.5107232  36.3071296  71.5479994  15.9285938  36.6348897
  71.2221289  16.6147191  35.3938633  56.6041834  12.8032910  45.5513946
  55.6798569  12.5214736  45.6444594  56.8807936  12.2856352  44.7737719
  64.0639643  14.7206110  49.2952527  65.0106941  15.0328149  49.5123601
  63.5799074  15.5081678  49.4132698  34.2465308  76.0736656  30.8835566
  33.4640632  75.4755065  30.8727626  33.8208402  76.9186496  30.8143724
  73.6117908  12.0320846  35.8286673  74.1585713  11.8266786  34.9622289
  72.9675804  11.2591398  35.7550109  68.1258827  26.4930313  33.5410954
  68.4749831  26.6498145  34.4353869  67.3650149  25.9511213  33.7027301
  51.9396050  13.0827409  49.3010869  51.8108415  12.1664116  49.6981097
  50.9205778  13.1726178  49.0754148  49.9980797  76.5806181  30.7272493
  50.7612600  76.6456336  30.0252991  49.3238101  77.0118477  30.1911068
  70.7124130  22.9552739  40.3357538  70.6852815  22.6844300  41.3264735
  70.6262547  22.0400239  39.9615247  51.7807391  10.4279207  45.7841284
  50.9732036  10.3340192  46.3211875  51.4253041  10.9139568  45.0314332
  63.4386160  12.4686946  43.5167095  63.2442056  13.4103860  43.2502314
  62.5953323  12.0357604  43.6178968  62.9449646   7.4258607  34.7233810
  62.4843785   7.4170974  33.8343538  62.6276363   6.6300933  35.0903611
  74.3285274  23.1417358  35.9937490  73.5436207  23.7360177  35.8916177
  73.8695887  22.4403482  36.4803333  60.4498010  12.3885534  42.4868212
  60.1996029  11.9850783  41.6407666  60.6991025  11.5642515  43.0189746
  78.8524573  13.9157131  39.9514374  79.3640935  13.2466316  39.3701813
  78.7272354  13.2670977  40.7113475  70.2802421  21.0924868  36.8195591
  70.1729371  21.9200488  36.2616761  71.2112484  21.0725696  36.8873832
  65.9619658  12.5065031  36.8459519  66.6011221  13.2516698  36.8464148
  66.3666877  11.8410651  37.3709668  47.8612414  10.5971010  36.8841538
  47.4676791   9.7222132  36.9861104  48.3838916  10.4587867  36.1088514
  54.6620880  11.6758612  32.4715065  54.6491993  12.1186546  33.3538456
  55.0500450  12.4450272  31.9471675  64.2830897   9.5295070  24.6605026
  64.9131094   9.0050577  25.1955979  64.3466186  10.4054627  25.0778416
  70.6873293  27.1862313  24.3836100  71.4750145  26.8655817  24.8381264
  69.9655050  26.7627114  24.9115081  23.0274250  52.4754547  82.9504379
  23.9868217  52.4777791  83.1950001  23.1006907  52.7002520  81.9758180
  70.5389146  17.0981766  28.3182693  71.4185628  16.7531811  28.5145390
  70.2113607  16.5637141  27.5965978  50.8646442  76.6440933  46.3541793
  50.2203036  76.3283535  45.7267544  50.2844758  77.3161510  46.8284066
  28.4320770  72.3777342  37.9086671  27.9054039  71.8439807  38.5761288
  29.1868287  71.7520267  37.8418566  60.9584426  11.9086995  35.0457143
  61.2501624  12.5344096  34.3898812  61.8598830  11.5550290  35.3304076
  61.3329029  16.7728310  34.4862073  61.5410304  17.4076538  33.8040721
  60.9033963  17.3413633  35.1484821  53.3052314  79.8767814  44.8500252
  52.4739735  79.5375933  45.1913090  53.5756182  80.3991757  45.6437327
  62.3879054  15.3242970  31.1516650  62.7173372  16.0766162  30.6301091
  62.1294345  14.7435505  30.4478782  36.2820254  79.7745161  48.1057679
  35.3953841  79.8858957  47.7037411  36.1159670  80.0727214  49.0658983
  54.1121226  14.6903260  41.0637905  53.8020519  13.9914901  41.6976505
  54.7087961  15.2509008  41.6890724  56.1678376  16.9848360  46.7874251
  57.0706478  16.6291629  46.8332947  56.3640114  17.9355866  46.9634810
  65.7701787  14.8437117  22.0629330  65.0292130  14.2107518  21.9361172
  66.1987503  14.7597011  21.1605567  72.1142417  13.3442538  29.6027123
  72.1150867  13.4316496  28.6220970  72.5441061  12.4806224  29.6843105
  63.5587812  12.7209064  18.5031971  64.1839397  12.3389879  19.1434992
  62.7337895  12.2679276  18.7585500  61.6658787  18.4734422  24.6072034
  60.6739345  18.5887212  24.4826158  61.5501041  17.8607011  25.4458253
  58.5752329  10.6620009  38.6600687  58.2259215   9.7910116  38.6785591
  57.8047333  11.2220406  38.9456389  68.2672469  14.5370645  48.8177119
  68.8511744  14.9224881  48.1358922  68.9734860  14.0970659  49.3407685
  70.3260402  11.1922446  41.7573177  70.5809017  12.0970254  41.4742160
  69.8382949  11.4407604  42.5683243  76.7536881  15.3758409  40.6689660
  77.4824965  14.7034765  40.4931226  76.0418723  14.7349271  40.8194148
  68.4637026  29.4061299  36.7541324  69.3213026  28.9975409  37.1252892
  68.6870277  30.3474441  37.0849094   3.3608604  25.2264255  43.1445691
   3.6443495  26.1086662  43.5193441   4.2451644  24.9559021  42.8113250
  69.4861127  30.8582359  33.9871249  69.4870004  31.4194279  34.8569714
  68.7785762  30.2273241  34.2747304   3.5006393  36.9065131  45.7580705
   2.6348723  36.4674565  45.6694255   3.3903966  37.3905901  46.6157617
  26.1209835  63.4318641  78.1239641  25.9527073  62.4766086  78.1906315
  27.0518645  63.4593311  78.4622184  69.7409909  34.5132568  34.2513272
  69.5520414  33.7893681  34.9078570  68.8155892  34.7208254  34.0090592
  69.9991737  23.4366184  35.5828380  69.2843021  23.8677029  36.0842333
  69.6968873  23.5092139  34.6950776   0.7626631  11.6256339  27.2313196
   0.2538595  11.8541293  26.4096382   0.9373608  12.5229723  27.6115625
  71.7273413   9.9993714  36.2401941  72.0896429  10.1164060  37.0740374
  71.8491849   9.0321405  36.0177391   0.3427352  27.1474532  30.3224951
   1.1631370  26.6784500  30.1130085   0.0244517  27.4194734  29.4557421
  78.9367903  15.8480970  31.9203674  79.1043923  15.5910332  32.8021147
  77.9966091  16.2212912  32.0348121  69.2763253  30.4180800  25.5451872
  70.1427736  30.0596366  25.1762562  69.1991425  29.8806110  26.3549732
  74.8240648  37.2327357  29.0640976  74.2151513  36.7003480  29.6341009
  75.6147449  37.2459197  29.6006185  77.9029076  17.1084857  36.4241546
  78.6900404  17.6827357  36.1993828  78.3130039  16.2045038  36.3774055
  77.6142695  30.1957868  33.1541558  78.3323539  29.5470134  32.9347104
  76.8279455  29.5763898  32.9910554  69.2971156  26.0350293  30.6971867
  70.2284313  25.7592227  30.7284289  68.9743811  25.7267596  31.5630426
   6.6497994  34.1766431  39.2965646   7.2956362  33.4622000  39.2987941
   7.1810971  34.9657414  39.1857480   0.8480084  30.1424684  26.7002160
   0.6975119  29.7259101  25.8234590   1.4499146  29.4791028  27.1213637
  72.6889470  24.3809096  42.8049347  73.4203585  23.8709284  43.2520214
  72.0162651  23.6873678  42.6705907  67.6865471  22.6641495  39.2072909
  67.5432601  22.1422480  40.0504871  67.5915315  21.9787296  38.5716852
  73.2490365  25.2741908  46.6808653  72.6812406  25.6145531  47.3829986
  73.8314273  26.0495541  46.5215266  75.8109606  11.4968788  42.7034079
  74.9528853  11.1609262  42.3853684  76.2769356  10.5957541  42.7327852
  76.7583937  24.1846851  44.5788587  77.0492725  24.7068115  45.3165413
  77.6252088  23.9178972  44.1505366  76.4010080  18.9821767  52.3427171
  76.8105599  19.2392449  53.1841286  75.8614596  19.7489553  52.1007317
  62.1019858  80.1975570  37.3924972  61.7473852  80.9005155  37.9753175
  62.2648775  79.5524042  38.1373659  79.4741596  17.4955783  47.7254453
  79.2217947  18.1527917  48.4466877  80.0942166  18.0356147  47.2657081
  72.2300928  25.0100601  36.3178809  71.5805374  24.2956742  36.1961779
  71.6154828  25.7760014  36.2090023  72.5190845  34.5087643  33.5938206
  71.5796805  34.7246065  33.9433732  72.5861675  35.3343402  33.0072504
  78.9751552  27.6737841  43.3589420  78.1768962  27.1943135  43.0672593
  79.5108941  27.0227281  43.7700076  78.7851038  14.6694507  49.8636561
  78.1306422  14.0019931  50.1542732  78.2414915  15.3407418  49.4753656
  64.5721790  21.0906462  40.9815082  64.4301997  20.6012617  41.8190274
  63.7565505  20.8777723  40.4723859   1.3552608  26.8800961  39.6363991
   2.0234799  26.2783999  39.9988018   1.2431357  27.4807086  40.4176750
  67.0586863  16.8055344  39.6380183  67.8132071  16.9841343  39.0475119
  66.5804729  17.6898847  39.6575396   4.1295162  22.1992352  31.0553234
   3.2238425  22.4034314  30.7279838   4.2710443  22.8811093  31.6992623
  78.4452560  18.2900906  44.8876920  78.4640723  17.3748780  44.7108968
  79.3211743  18.6174389  44.5885774  77.2174616  23.4578867  28.7635430
  77.1142308  24.3661588  29.1642156  76.9369517  22.9129983  29.5669782
  67.4888963  26.8265560  37.4560393  66.7558407  27.1962317  37.9803970
  67.6918013  27.5518825  36.8802533  75.2058388  28.7865371  33.9349608
  74.7906085  28.0673238  34.4423563  75.1165526  29.5538659  34.4942625
  71.9843197  37.2357461  60.7394216  72.7728898  37.1554396  61.4065732
  72.1774872  38.1540211  60.4687773  11.1246150  47.4799002  37.3124234
  11.5582989  48.3209373  36.9956122  11.8872099  47.1076736  37.7540569
  70.8360110  31.6091309  31.7544693  71.6794654  31.1656491  32.0365283
  70.2998098  31.3442291  32.5910423  78.9644656  21.1673563  46.6763669
  78.3923126  21.1765330  47.4470415  78.5857563  21.7871852  46.0767511
   3.9046205  13.3308383  37.8073091   4.8485892  13.5293094  38.0708838
   3.9910417  12.4451696  37.4627777   1.8379848  21.3250935  33.5313490
   1.8104514  20.4243440  33.0712508   1.2021105  21.8490037  32.9517000
   8.6062971  17.6574341  32.1109148   8.1526094  17.3905242  31.3539115
   9.1557257  16.8738240  32.3378029  74.9725891  13.5207282  41.2715371
  75.3152479  12.7082406  41.7319329  74.5971069  13.9580768  42.0946337
  59.3656064  79.9705701  39.0855285  60.1701018  79.3540760  39.2471906
  59.7755878  80.7433705  38.7180576   3.8537687  41.1536669  30.0836639
   4.0195861  42.0160320  30.5533757   4.7738107  40.8257332  30.0706170
  78.4772896  32.9433473  30.2620130  77.8617429  32.9895581  31.0494249
  79.2112312  32.4549850  30.6802891   1.3330997  15.8325885  40.9457499
   0.7653733  15.2834403  40.3802566   1.3746610  15.3213857  41.7543818
  74.9317478  20.0722465  31.3482929  74.6986893  19.5757240  32.1735991
  75.1035131  19.3645832  30.7544293  73.0188049  10.2080510  33.2187804
  72.9017993  10.4812940  32.2721148  72.2229729   9.7536878  33.4661821
  74.4228680  36.8663888  23.7191760  74.4304697  37.7003612  23.2226869
  73.4503766  36.6171849  23.7107936  73.7047442  28.7983036  16.6983044
  73.9544936  28.9474566  17.6762010  74.2097742  29.5999258  16.3727043
  74.6372582  19.6030084  42.3628235  75.4671567  19.8183972  42.8481022
  74.8415138  18.6329616  42.1834732  72.7701083  21.1193164  43.8283053
  73.6287343  21.6295321  43.7594304  73.0844996  20.3029524  43.3223970
   2.1107236  20.8143917  26.4085697   2.1523376  19.8444138  26.4949666
   1.1903816  20.9275456  26.7348302  73.0947720  20.1676669  40.1294153
  73.6989642  19.7158772  39.5268799  73.5861946  20.2367564  40.9477659
  75.0895801  31.5955385  28.4811885  75.9888871  31.2983619  28.2003329
  75.4051160  32.3549201  29.0657383   7.9118076  16.9684763  24.1539045
   8.1875448  16.7282528  25.0892422   8.5444723  17.6690027  23.9954055
  78.4522698  25.1958930  31.6851744  78.8177803  25.9687251  31.1506717
  77.5920511  25.1220185  31.1665747  71.6664752  36.8789120  17.0838411
  71.9469704  36.0398929  16.7923136  71.5335017  36.6915916  18.0769821
   6.0510699  12.1852957  41.7717561   5.4502915  11.9668430  42.5043088
   5.5871984  12.9960733  41.4213891  44.9399494  80.7895096  40.5826269
  44.7559010  80.9303222  39.5793869  45.5555035  80.0868983  40.4839862
   1.3558375  30.1126216  39.2551918   0.6828519  30.7065723  38.8416175
   0.8862060  29.7704654  40.0344125  79.4415513  31.7377622  37.1754842
  78.6245315  32.0517026  37.6752664  79.0577789  31.0572060  36.6482031
  77.6281283  32.8107833  32.8418379  77.7956330  31.9130662  33.2887755
  76.6381167  32.8306971  33.1944450  66.4642484  24.2957337  34.6613739
  66.4552795  23.3428654  34.5143027  66.8737256  24.2870528  35.6021272
  69.0040405  22.4645614  44.9391420  69.0907274  21.9963551  45.8193442
  69.4311106  23.3052792  45.1627957  30.9467504  52.9128706  -3.4696545
  30.0144344  53.1576310  -3.8279747  31.2800278  52.6276514  -4.3481395
  70.8344658  14.3511787  57.6613710  70.0531235  14.5873385  57.2036772
  70.6445969  14.2366244  58.5794079   1.1887775  24.2397186  41.6552494
   1.8450465  24.3059622  40.8870931   1.7641236  24.7409547  42.3011784
   5.5336781  21.5166439  22.7567441   6.3589692  21.5524237  23.3040174
   5.1401386  20.6913545  23.1777091  76.3116658  31.5798573  46.1671009
  76.5433834  30.6247406  46.0949554  76.0875946  31.7565835  45.2083533
  75.9430290  29.9844088  41.7416764  75.0903132  29.5141226  41.7028593
  75.9286998  30.3882495  42.6134306  69.3618259  12.4683474  44.1000532
  68.7150729  13.2026705  43.9333974  70.0899342  12.9286183  44.5302040
  69.3358724   9.8556785  45.1700683  69.6443292  10.7888161  44.9115032
  70.2500968   9.5455916  45.4391470  72.5538804  35.8711310  30.3270109
  71.7150188  36.3589317  30.2303912  72.9048348  36.4134285  31.0692119
  68.6981158  13.7623872  21.2857129  69.1466526  14.5627054  21.7146182
  68.1179317  14.1757885  20.6419149  76.8946429  27.6077671  36.5293244
  76.0474087  27.6186634  36.0648902  76.5671268  27.4136191  37.4329893
  77.1840258  39.4918522  42.6447061  77.2432832  40.1288381  43.3804845
  78.1015982  39.1255936  42.6088838  70.5656474  37.2730052  34.9136949
  70.3991939  36.3305620  34.7149034  70.0785815  37.4332891  35.6939463
  74.5010135  26.8238138  28.0540751  75.1596354  27.5541131  28.0217819
  74.2666984  26.8234553  27.1341658  76.5361302  32.5242208  43.1658844
  75.7756005  32.7822680  42.5580815  77.3265108  32.5696091  42.6272517
  48.7446301  84.5656956  34.7486432  47.9534865  84.8299782  34.2705717
  49.4529782  84.7072483  34.0842154  72.5376129  20.6604898  33.8149176
  72.4252664  19.9127680  33.2331070  73.4574836  20.3932200  34.1963009
  70.6609403  30.5136796  39.5710585  70.4633160  29.8965092  38.8633309
  70.0423802  31.2609365  39.3707703  79.3318100  32.9345966  50.2167111
  78.6072472  32.8368200  49.6293114  79.4586037  32.0406951  50.6219592
  73.3228409  28.3771965  23.2822806  73.5654898  29.2763421  23.4363826
  73.9255973  28.0641561  22.6216817  76.5234774  26.2444138  42.9518256
  75.9372004  26.0942561  42.2195926  76.4556013  25.3813680  43.4240601
  74.2868859  26.8692884  35.6458555  73.9566800  27.2854092  36.4602518
  73.8034950  26.0312678  35.6039759  76.6439279  45.8121933  31.5155520
  76.6612602  46.0949633  30.5705709  77.4846563  45.2495938  31.4619700
  69.3098679  16.9032310  38.2786803  69.9728971  16.4882078  38.8612977
  69.9134921  16.8652667  37.4388696  58.7781433  16.5262689  46.8078175
  59.2334522  16.8069837  45.9298259  59.5943302  16.0412203  47.1486497
  77.6077875  37.0026505  47.6898180  77.8594679  36.6936550  46.8036735
  76.8850174  36.2909973  47.8853150  72.7907760  21.0755114  50.4040093
  72.3487683  21.9615788  50.2345992  72.2159380  20.4783146  49.8915979
   3.9202345  20.5768713  46.2562530   3.0653597  20.2306347  46.0453312
   4.0191904  21.3238674  45.6472859  74.6921787  15.5437068  46.2943479
  75.3223530  16.2649974  46.5236265  73.8857645  16.0825193  46.1049968
  73.1229085  15.9477620  34.4806247  73.8739136  15.4288978  34.0724260
  73.5856107  16.6582183  34.9283122  66.3832190  15.2107808  37.4027584
  66.3054761  15.8204268  38.1714993  67.1686644  15.5513161  36.9618894
  76.3891593  17.5818680  46.9911982  77.2032882  17.7995379  46.5267470
  76.1832341  18.4753677  47.3221506   9.7018323  14.3606808  43.0211627
   9.2711628  14.9054275  43.7416359   9.2792075  13.4919015  43.2624181
  75.0734824  14.5930368  33.0596043  75.0813542  14.2648202  32.1066442
  75.5278237  13.7910873  33.4681269  78.2883832  24.3607542  40.4932260
  78.3383204  24.9905195  39.7451834  79.1739088  24.4220688  40.8861324
  67.4275570  12.5840079  34.1025327  67.0037980  12.5198883  35.0622060
  68.3238688  12.4199036  34.2933362  76.8744079  17.6620172  38.8007288
  76.7323472  16.7500900  39.1560164  77.4212870  17.3857595  37.9777864
  68.6406696  19.2791084  41.4703166  69.2163189  19.7203071  40.8045455
  68.1036887  20.0770822  41.7221038  48.9630130  81.0069516  31.6057590
  48.6108700  80.0836835  31.8424333  49.5246003  81.1512843  32.4002371
  70.5370827  20.3856798  39.5733878  70.5875712  20.5069271  38.6150473
  71.4685350  20.2043254  39.7693536  61.9916676  18.6931443  42.7964771
  62.7486894  19.3237368  43.1039057  61.9082294  19.0687041  41.8638701
   5.7734342  40.4187283  33.8281521   4.9770378  40.8842679  34.2603404
   5.3405425  39.6547402  33.4698376   1.3458308  32.5859324  32.6721501
   2.0327924  33.2532791  32.8971170   0.6853649  32.9442448  33.2466090
  75.1202973  25.2444601  49.8513973  75.2381520  24.8052538  50.7251206
  74.1613279  25.5126264  49.9724531  70.9874687  22.9949558  50.1006284
  71.4447897  23.8711904  50.2447270  70.1581656  23.2029998  50.5126806
  70.6580498  30.6055486  28.3518693  71.4920452  30.5690783  28.9797313
  71.1772465  30.6063614  27.5041805  72.9583252  15.9954114  28.8572820
  72.6580540  16.0860765  29.7870931  73.1668545  15.0403334  28.8274271
  69.2702768  23.4103706  32.2645917  68.5494528  23.0311129  32.7775103
  68.9686192  23.1195590  31.3564985  46.0393238  82.2742676  31.4565640
  46.6657569  82.0779212  30.7372945  45.3666863  82.8161825  31.0844821
  71.8492637  25.5179388  30.2676169  72.5951220  24.9041502  29.9687306
  72.2014231  25.6514874  31.1907618  54.8564440  78.2389825  38.5008227
  55.5247655  77.8510708  37.9041878  54.0452068  78.0034574  37.9763452
  78.2388152  34.9351199  26.4314982  77.6117425  35.6196352  26.7175206
  78.7957683  34.8761737  27.2190545   5.5745899  24.5726188  24.6580046
   5.9164907  25.3383066  25.1678822   6.3479681  24.0305591  24.7048079
   5.5466037  30.1796418  56.8885570   5.2377741  30.1249514  55.9660816
   5.8277290  31.1407146  56.9011592  76.4938585  23.2761675  18.2628381
  77.3696252  22.9629024  17.9013342  76.3811195  22.6072635  18.9776718
  72.2812556  23.3475822  33.0296180  71.7726133  23.0241403  32.2374733
  72.4284398  22.4955097  33.4784474  42.7551696  80.8484105  45.4084830
  42.0133001  80.9946055  44.8274486  43.4125546  80.5153579  44.7324500
  11.2430290  12.5961533  32.9789954  10.2933957  12.4576539  33.0876273
  11.6435550  11.8073088  33.4665025   4.1892075  25.2872049  50.3052778
   4.6326886  25.8382696  50.9365595   4.9340832  24.8215282  49.8894260
   6.8104534  24.6074367  18.0926726   6.9884294  23.7177587  18.4192937
   5.8900378  24.7176685  18.5072210  73.4573129  28.3165648  37.8928979
  73.8605834  29.0938006  37.5036757  74.0251014  28.2312958  38.6957369
  70.4161315  26.8450623  35.3592882  70.0252018  27.1865544  36.1329466
  70.7118519  27.6404366  34.8566232  67.7341074  24.2865980  36.9982691
  67.5601559  23.8598561  37.8543516  67.9151737  25.2237675  37.2922304
  70.6636979  40.5279470  29.4255235  69.8157129  40.7308530  29.0289305
  71.0770087  41.4414027  29.4196098  63.9499266  22.8704424  44.5117608
  64.0791943  23.7915170  44.2620393  63.5556706  23.0354975  45.3757980
   1.3167627  25.5134060  50.2620228   1.0131470  24.5818461  50.1388290
   2.3072763  25.3803538  50.2105143  75.6608299  22.6994490  31.0429254
  75.8748718  23.0424852  31.9181052  75.1600090  21.8694066  31.2711977
  75.9489081  34.8826540  39.6416798  76.5118304  35.3278504  40.3360935
  75.7673427  35.7106595  39.1144975  73.5574215  47.1043317  23.8093167
  73.8736891  47.1303529  24.7425386  72.7005790  46.6456263  23.9955754
  51.8765288  81.4873857  37.0304865  52.6950434  81.3608725  36.5581595
  51.8118049  80.5162717  37.3931604  61.3754570  18.8995744  46.6506262
  60.9167048  18.3608598  46.0088639  60.7390476  19.5460774  46.9354855
  70.1951558  46.3186468  49.4702672  70.4471524  46.7923287  48.6624375
  69.2832368  45.9987972  49.2850252  73.4850678  41.9794782  40.4073103
  73.1961684  42.4577957  41.2187562  74.4047234  41.7659698  40.7403579
  72.7654389  41.1988868  44.0093972  71.9703789  40.9711010  44.5230519
  72.6349476  40.6011137  43.2259499  77.1903894  36.9280921  41.1355295
  77.8958185  36.5411855  41.7142444  76.6662000  37.3375439  41.8506000
  13.0285555  39.7630600  35.9134883  12.8536774  40.4851369  36.5369232
  14.0391804  39.8169000  35.9096005   4.9866590  42.9552117  24.1447134
   5.7691275  43.2936924  24.6104704   5.3071903  42.0543234  23.9187847
   5.8622594  36.4898869  48.8615093   5.6659787  35.6105531  49.2446097
   6.1289747  36.1484926  47.9511154  11.2887235  50.1835121  40.2129833
  10.6657069  50.7475705  40.6291407  11.9980878  50.8899888  40.0619070
  61.7592199  48.0610762  30.0837727  62.4244765  48.1219919  30.7716713
  62.2246683  47.4881158  29.4503126   3.8886454  31.6972329  35.3126505
   3.4471127  32.1524403  36.0861684   3.2573628  30.9214527  35.2523606
   4.0903484  22.1564695  41.0633569   4.7947847  22.6377006  40.5239760
   3.4005749  22.7979458  41.0612731  68.9272184  44.2359872  43.5265878
  68.0313937  43.8875576  43.3666656  68.8804438  44.1602633  44.5514203
  76.4194364  35.8395438  35.1807358  75.6427875  35.8255343  34.5655256
  76.5914628  36.8060689  35.2260843   5.8391311  45.4859560  41.8296204
   5.2551383  45.2257700  42.6309686   5.5157706  46.4095977  41.7592202
   2.6256672  41.3181237  42.9886529   2.9839917  41.4895879  42.0850800
   3.1158298  40.4977517  43.1949046  74.5447609  41.1354141  32.6738722
  74.5291271  41.5027210  33.5911695  75.2379676  41.7136370  32.2969363
   2.5947619  35.0977405  37.4766246   2.1437588  35.7090800  36.7876254
   3.3603001  35.6497498  37.7314624   8.2770923  39.7759368  46.8397707
   8.1506498  38.9182594  46.3447108   9.1430344  39.9908404  46.4462065
   8.2702065  43.9167729  29.1781915   8.1382215  43.3251536  29.9949022
   8.2503835  44.7667898  29.6994518  69.8931736  30.9625633  22.0208032
  70.7908807  30.9823293  21.6666152  69.7564063  29.9712617  22.1031480
  64.7771740  22.3789285  11.6411896  64.9363808  21.5108368  12.0336111
  64.1246681  22.7367194  12.2203761  19.3168030  63.0233637  70.6665381
  18.9282819  63.7332649  71.2596540  18.5472623  62.3966742  70.7166465
  67.0994900  17.6745359  35.3080299  66.1113264  17.7488960  35.0882392
  67.3653439  17.4163550  34.3971341  54.3999683  80.0689913  26.7128541
  53.8824837  80.8478771  26.7595630  54.3274902  79.8186105  25.7605992
  38.0362959  80.1301767  25.6983777  38.8276470  80.6646561  25.6484350
  37.5868093  80.3998615  24.8749994  72.5821698  13.2880050  27.0454459
  73.1523218  12.5314009  26.8665267  71.7201221  12.8854100  26.7545552
  49.1523220  79.7939066  37.5634552  49.3979416  80.7452231  37.2765122
  48.3473606  79.6925019  37.0908001  48.0177131  78.3783637  29.3177506
  47.1067309  78.6026411  29.6419788  47.9328952  78.5169720  28.3478540
  40.7939194  80.5113284  31.7828402  40.6761694  81.4495793  31.7057976
  39.8833310  80.1556067  31.8569142  54.3051627  82.1444271  29.6822273
  54.0949332  82.2184141  28.7072157  54.9851810  82.8779846  29.6486354
  41.7483435  75.3452151  30.0876377  42.3147643  74.9737442  29.4151046
  42.3934951  75.9359994  30.5732437  17.5569584  47.3751229  78.9968447
  16.5987720  47.2017320  78.9821190  17.6219123  48.0138314  79.7695094
  69.6986278  23.3239348  17.8013580  69.6941822  24.1209485  17.2188990
  69.2220246  23.7212613  18.5778494   4.1311265  11.2344068  43.5998685
   3.7466330  11.7721683  44.3302828   3.2945494  11.0095334  43.1685445
  68.0022412  10.3895259  26.7758063  67.7864984  11.0036601  26.0408791
  67.6826784  10.8728592  27.5543654  53.1792072  82.5265952  27.3015867
  53.6258315  83.0284295  26.5654377  52.2303714  82.8214220  27.0931986
  46.0251360  71.7386422  25.0748478  45.3538023  72.4226748  25.1862473
  46.3133972  71.5675494  25.9872189  70.0325786  18.8149049  30.0981229
  70.0370716  18.3254585  29.2485675  69.0740661  19.0880823  30.0842312
  57.0728192  13.6639562  21.5298790  57.5115820  14.3456419  22.0461353
  57.3918034  12.8438706  21.9582671  19.7765891  49.4312091  74.5572957
  19.4506631  49.0144317  75.3559534  18.9876362  49.4615927  73.9888227
   4.4900622  15.9465869  30.8434080   4.4864757  16.2610357  31.7822046
   3.5509369  16.1833948  30.6656338   0.9528974  19.0816860  28.9152186
   0.9922015  18.7059790  29.8733512   1.1313472  18.3029069  28.4042579
  45.6258678  82.9773024  24.9944657  45.9611801  83.8447956  24.5730829
  44.6495090  83.1878580  24.7830605  69.8761649  12.8508988  26.3142484
  69.2266098  12.5401629  25.6668269  69.2069711  12.9044381  27.0707263
   0.9331684  33.2213142  23.7219269   0.9742441  33.3646745  22.7701553
  -0.0493882  33.3828979  23.8742057  74.9901890  25.1109781  24.8874508
  74.5329816  24.5700313  24.2028309  75.5282725  24.3766457  25.3397752
  74.9851105  10.8476359  21.3055552  74.7035485  11.3258432  20.5096571
  75.7433340  11.4241296  21.5837558  76.6513506  17.0338493  32.2243250
  75.9192932  16.6569767  32.7702250  76.2417366  17.0465470  31.3311984
  73.8461813  24.1193532  29.3775856  74.3526505  24.8046149  29.0141319
  74.4593620  23.6220508  29.9676454  70.1270190   9.9985350  20.4393721
  70.4243697   9.1670994  20.9531358  70.0711686   9.5325062  19.5880587
   2.0478898  25.3339671  20.1767511   2.0845904  25.4669535  21.1165001
   1.6664868  26.2023068  19.9209300  58.2725743  82.3418149  30.8043225
  58.2845230  82.3098405  31.7474112  59.0963224  81.9341207  30.5171219
  71.4627592  26.2513082  27.6741246  72.1163824  26.6210080  27.0600040
  71.8187634  26.3561250  28.5570332  78.5732902  26.6847037  26.9916068
  79.1693796  26.0409678  26.6578006  78.9900488  27.4707877  26.7258992
  66.2470812  25.0565473  13.4345447  65.3315631  25.3172021  13.4010462
  66.4698885  25.1624670  14.3843610  29.8265247  54.1452919  71.5258375
  30.4062656  53.4146925  71.7821732  30.5483309  54.8725451  71.5937156
  69.0084909  10.8569419  22.7838971  69.8425494  11.2846242  23.0828351
  69.3627233  10.4117966  21.9740644  69.9787920  32.6206517  24.2193747
  69.8410094  31.8411074  24.8217145  69.7964931  32.1463445  23.3507682
   3.9191346  37.2285980  18.3323968   4.3119126  37.7868984  17.6427585
   3.4900458  36.5817405  17.7710530  72.4320018  20.5711068  29.7478624
  71.6505597  19.9585158  29.8653681  73.0861233  20.2469464  30.3416062
  42.4716410  66.4294093  12.5131436  42.8665343  66.6438764  13.3767132
  42.1320785  67.2805600  12.2323459  10.1869076  47.6557423  66.7810182
  10.5135688  46.9844854  67.4117316  10.1962646  47.1368793  65.9238100
   8.2019436  54.2360556  59.7547737   8.0007355  54.5284828  58.8120389
   8.7187794  53.4203404  59.5708863  26.1073337  65.8135705   9.2500164
  26.4112477  65.3134429  10.0432360  26.4349269  65.2775861   8.5288082
  52.6443740   2.9676654  10.1936894  53.5268482   2.5528246  10.2830951
  52.9633171   3.7772914   9.7027004  53.9222943   5.5352321   8.7224595
  54.3279894   6.3601648   8.3607947  54.6862656   4.9842733   8.9364832
  12.4902243  37.8963053  63.0599344  12.1860479  37.0892864  63.4582671
  11.8985365  38.0150615  62.3052106   8.5332780  30.4779696  58.1454020
   9.1493507  30.7678731  58.8344981   7.7843353  31.0862484  58.2391953
  13.6857311  36.9093875  67.3301246  14.6782900  37.0671755  67.2066153
  13.3748973  37.5136899  66.6332142  19.8587246  41.8432932  67.2106268
  20.1980881  41.7967177  68.2150807  20.3167446  42.6923737  67.0243657
  38.5401677  73.0671781  17.3567554  38.4385750  73.9545328  17.6837794
  38.1980844  73.1519855  16.4141315   7.4770382  34.1828086  71.2565705
   7.0729034  35.0129802  71.6200162   6.7000184  33.7886130  70.8151719
  11.5212562  34.3500309  69.2237171  12.3141309  33.7466907  69.2900376
  11.4070048  34.4512370  70.2099166  56.9612093  17.8928536   2.9979500
  56.9079846  18.3169441   3.8279987  57.4971265  17.0745491   3.1551983
   7.7674461  38.7869035  69.0602038   7.2948526  38.2418315  68.4191824
   7.0435798  39.0790095  69.6157633  16.3986459  42.3899018  53.1040203
  16.4988642  41.4090043  53.2758833  17.0472639  42.7344167  53.6767165
  34.8259156  66.7925228   6.0101267  35.7182201  66.9896576   6.2953162
  34.4544418  66.3188377   6.8205393   7.1665994  45.7540742  55.8437370
   7.9962512  45.6689130  55.3741305   7.3831504  45.2584317  56.6866026
  34.5766288  76.8628972  11.2103913  34.2841019  77.6561654  11.6742212
  35.4836259  77.0369836  11.0415246   3.6374700  29.3726031  58.5106614
   4.4627353  29.7202925  58.0572348   2.9895568  29.4506305  57.8183484
  21.9778967  39.1284178  63.4412019  22.4634381  39.9600768  63.5350806
  21.0899286  39.4746165  63.7470393  64.8246810  20.4422728  15.6396303
  64.8956434  19.7530899  16.3109355  63.8452022  20.4269580  15.4385307
  15.8189811  54.5985910  56.8653157  15.4411593  54.9055310  57.7228340
  15.4364605  55.2795720  56.2923896   8.7021085  51.2435449  69.8952034
   9.0030763  51.0271343  68.9661652   8.9758597  52.1595724  70.0455788
  13.9095498  45.1541828  69.8126560  14.5796775  44.8217384  70.4249634
  13.1104413  44.7149306  70.1560142  23.1110427  50.4842178  63.9228201
  22.3857651  51.0609871  64.2211023  23.7261121  51.1389124  63.6032365
  21.9725496  50.5549813  73.5315128  21.5182458  51.4227126  73.3404436
  21.2364965  50.0822347  73.9719109  49.2982590  82.8688676  22.8922038
  50.0979446  82.6791826  22.3347808  48.9092633  81.9221079  22.8606039
  15.9574699  43.4822063  79.1379016  15.6366274  43.6758206  78.2188981
  15.8533472  42.4893588  79.1529732  16.6148231  44.0869591  67.6155317
  16.3764962  44.8816517  68.1418388  15.9828259  43.4185603  68.0271323
  24.0924830  38.2450455  70.7450812  23.5623006  37.3509599  70.6852147
  24.3051818  38.2970412  69.7650806  40.1289612  75.5539992  24.9037995
  39.4346701  76.1766661  24.6466597  40.0347953  74.8442045  24.2355481
  17.7707636  34.6958238  53.6282970  17.7505494  33.7723018  53.3723082
  18.0904745  34.6393034  54.5430796  33.4984261  71.6355723  17.7525352
  33.3366711  70.6495400  17.9198712  34.3110322  71.7303462  18.3270299
  14.9613819  42.1876773  58.5022409  15.0920465  41.5547799  59.2623214
  15.4412132  42.9549080  58.7624997  23.6021097  52.0773921  80.3242121
  23.0445061  51.3166428  80.4407444  23.2879651  52.4190420  79.4724632
  23.3488812  53.4990648  69.8977027  22.6162160  54.1493123  69.9862028
  23.7427359  53.5565671  70.7685209  12.4125654  45.2842996  65.6842215
  12.3142032  45.6005805  64.7866902  12.6673606  46.1373430  66.1296487
  21.8751614  51.0215370  69.4664632  22.6614863  51.5603551  69.4944990
  21.1589538  51.6483579  69.7388573  18.0530758  45.9893500  73.1817468
  17.2329692  45.9960855  72.5805695  17.5782448  46.2012784  74.0054752
  40.3253635  81.0588133  27.9111592  41.2217246  81.2671569  27.6405562
  40.4615765  80.1852086  28.3303113  31.4475861  47.5966907  65.3904698
  31.6290665  46.8545727  64.7575885  32.0854734  47.3471783  66.1103747
  24.4166773  62.6305983  62.0808271  23.8334122  62.3331784  61.3591100
  25.2017657  62.1229532  61.9677575  20.9889224  53.4050399  66.6791434
  21.9346878  53.6403921  66.8279017  20.7063717  53.1790777  67.5919330
  10.9910016  31.4379595  62.7163522  10.4096462  31.6371259  63.5117780
  10.6823103  30.5362624  62.6337481  19.1914582  50.3223806  66.8876617
  18.8600903  50.4076825  67.8202344  18.4377126  49.7686434  66.5339952
  17.7439218  29.9753755  63.9256598  17.6508271  29.3350564  63.2012527
  17.8149613  30.8351088  63.4154164  31.8183623  78.7860722  14.3405598
  31.4673424  78.7373832  13.4776888  32.7137307  78.4350775  14.3251763
  15.6808943  46.3103528  72.1844737  15.2481006  47.0626766  71.8010376
  14.9261445  45.7818947  72.5190106  46.0359762  66.9098481  18.3681095
  45.7337979  66.1103387  17.8413229  45.1727525  67.4706210  18.3128449
  14.8594656  39.2825668  77.0298306  15.0262610  39.4750805  76.1221275
  15.6095939  38.6982994  77.2599603   4.4960127  34.8393442  60.9084689
   4.5639704  34.1758127  60.2176008   4.1399827  35.6129425  60.4318902
  23.3474067  29.8691308  69.4327671  24.0956932  30.3634702  69.0844451
  22.7376495  30.5116271  69.7114382   7.6333590  48.2634699  51.8208780
   6.8403871  47.7434243  52.0573160   8.3536050  47.7156299  52.1402017
   5.1479786  48.0920978  60.9613872   4.9924272  48.6206794  60.1321727
   5.1282255  48.9098895  61.5513690   7.1949288  49.7451677  65.9322197
   6.7116615  50.5541381  65.6749066   7.8964911  50.0740615  66.5146696
  25.6374486  44.8848752  63.4056987  25.9046025  45.7353695  63.8131562
  25.5791951  45.1080475  62.4917620  12.7571414  44.8999987  62.6437448
  12.9819898  43.9909781  62.3460067  12.0011332  45.1225429  62.0437939
  12.9438020  54.2227365  74.2735108  13.6372379  54.9627192  74.2174576
  12.1406295  54.7931048  74.1197743  21.4125685  57.3321665  75.6416036
  21.8231522  58.1987312  75.6834415  21.6479203  56.9669511  76.5711133
  11.7814405  61.4434591  66.7260181  10.8682676  61.8204347  66.8846872
  12.2415112  62.3022283  66.6025590  47.7886847  63.8157288  17.8897465
  48.2984587  63.0363373  17.9471822  46.9353154  63.6118484  18.2884771
   9.6188352  53.9750264  69.8435861   9.8822191  54.4444846  69.0833622
  10.2906204  54.2407771  70.4846088  11.6826247  43.7367895  73.7880218
  10.9237061  43.2829862  74.2523255  11.2717478  43.7738743  72.8628562
  12.3063341  38.3701344  73.8828647  13.1384033  38.5463532  74.3160859
  12.5262075  37.7827674  73.1511944  22.7032876  45.6074225  71.7213999
  21.8348507  45.1854301  71.5719350  22.5031464  46.0646529  72.6373368
  27.1908319  42.7091978  72.7787507  27.2035491  42.3560964  71.8683054
  27.7737773  42.0766622  73.2405623   2.2767028  50.4980214  58.8480152
   3.2153219  50.4567730  59.0512640   2.2390542  50.0064416  58.0241627
  26.3959571  68.3340526   3.0423916  26.2485351  68.4708250   4.0273673
  27.3880314  68.2024804   3.0943651  25.9576161  46.6970748  84.9966862
  25.7169020  47.2302269  84.1901602  26.2470461  47.4523994  85.5717920
  20.1406793  40.0469043  55.8329443  20.2090177  41.0273892  56.0348916
  20.5205243  39.7325294  56.6745047  11.0955003  54.1577965  63.9142123
  11.8854168  54.6251270  64.2064363  10.4044117  54.8893973  63.9789890
   6.2380843  47.3042732  66.8874791   5.5889206  47.2446981  66.1813323
   6.7116418  48.1160841  66.6596674  39.7316165  68.4509742  17.5648364
  39.0097000  69.1365442  17.7347762  40.0940033  68.8108531  16.7439540
  28.0889146  45.5998164  73.3157327  27.5975820  44.7416911  73.2858261
  27.5186552  46.0967005  72.7008130  58.0637896   9.7175066   9.2418282
  58.1060262   9.3491676   8.2975374  58.8994010   9.3876591   9.6107984
  12.8385967  39.0992894  65.5540759  11.9422827  38.7964663  65.6411797
  12.9988563  38.9263594  64.6055091  22.4064072  47.5637589  79.1557925
  22.3128566  48.1632451  78.3843461  23.3385021  47.7723976  79.3969049
  22.3776579  46.7386695  67.8517613  22.1689867  47.6728130  67.5120437
  22.8499501  47.0288111  68.6769096  25.1622999  41.8244753  77.3943608
  25.5236708  40.9827993  77.0230505  24.2649009  41.8516836  76.9912780
  70.2879946  11.8272266  16.0450801  69.9988711  12.6258745  15.5636445
  69.5046456  11.6390967  16.5515257  20.7488708  55.5618986  70.2070663
  21.4311656  55.7591177  70.8700820  20.6082697  56.4519943  69.7866340
  55.9006919   3.8020045   9.1591164  55.7581713   3.0713176   9.9003616
  56.8664399   3.7569672   9.1709835  79.2672580  34.1695083  64.1204590
  80.1300828  33.8476586  64.5026146  79.2575958  33.7292386  63.2916247
  63.6485377  26.4302394   4.6601484  63.6144247  26.7431060   5.5796739
  64.4068976  25.8882819   4.6405715  14.1823738  30.4579129  62.8944700
  14.7330362  31.2598654  62.6601278  13.3808703  30.7988905  63.1597956
  30.0386818  45.7167912  68.6620786  29.7664586  46.0527597  67.8227271
  29.2202988  45.2944779  69.0005708  16.0943906  46.2824751  68.8229880
  15.2260269  46.0971570  69.2148658  16.4548569  46.7916034  69.5746153
  16.8332689  32.0505593  69.8496553  16.2549018  31.9182527  69.0551498
  17.0734130  32.9767690  69.6795959   9.8653309  46.8544234  70.5512201
   9.2770487  46.3084037  71.1495096   9.6813836  47.7609805  70.8442359
  17.6099080  51.2278516  77.7342635  17.3523294  51.8820848  77.0492937
  16.9343151  51.4745988  78.4311688  23.5924166  31.5568377  74.8441380
  22.9304659  31.2404773  75.4911737  23.3672283  32.5250670  74.9391390
  17.5803340  52.6226905  71.1227904  17.9472974  52.9785548  71.9856496
  16.6864704  52.4346479  71.4336878  29.9045649  59.3736996  62.6546914
  29.5786096  59.2574770  63.5613104  29.5444805  58.6455604  62.1574883
  18.3162528  46.6128612  64.9793484  17.3629380  46.9155607  64.8718254
  18.7927160  47.4167803  64.7929979  22.6133348  41.5630061  64.4696422
  23.4046633  41.7327005  65.0714995  22.6479790  42.4348761  64.0072163
  52.5273761  79.2494426  30.1532606  53.2195597  79.7209962  29.6632815
  51.7705255  79.5153095  29.5534014  60.0997973  11.1479250  11.5415187
  59.7509431  10.2939177  11.6814545  60.3668386  11.0803289  10.5933290
  31.0773392  75.6750782   8.9931790  30.4927545  76.1713112   8.4138926
  30.6845309  75.8930746   9.9032816  16.1468195  68.1338093  64.3188313
  15.4732077  68.6805284  64.8268110  15.8206090  68.3051316  63.4171445
  14.4738578  49.8228269  73.9805906  13.8660225  49.1097738  74.1440898
  14.1003762  50.5198943  74.5219624  14.7015165  51.1524820  63.0678663
  14.4178951  50.6478080  63.9310986  15.5218758  51.5522067  63.4694427
  26.4064693  71.1169517  61.8059538  25.5236519  70.7830074  61.9762742
  26.3814162  71.1861442  60.8282708  25.8776898  52.9764656  84.1945111
  26.2118965  52.9236877  85.1574710  26.0377713  52.0143911  84.0151267
  19.7582565  42.7428185  56.6742962  19.8827981  43.7451086  56.6653371
  19.8745615  42.5631820  57.6259081  23.0211294  34.1724331  75.8357433
  22.2373889  34.3684014  76.3687825  23.6664715  34.6694480  76.3223775
  14.5249840  40.7265066  66.8693331  13.8444615  40.1529684  66.4427437
  14.1726010  41.5948644  66.5417026  32.4468169  49.0808639  72.1498921
  31.9693864  48.3426497  71.7040739  33.0251813  48.6134422  72.7542224
  26.4624716  28.4128920  71.1853783  27.0475198  28.9983694  70.6929619
  25.8921725  29.0131037  71.6642333   9.3908394  47.2691915  58.3194146
   8.7187549  47.8286399  57.9256417   9.9051871  47.9817299  58.7704446
  71.9124196  20.7099044  20.4328137  71.3506338  21.1723927  21.0992868
  72.0322817  21.4674814  19.7766906  15.8441158  46.2058995  59.1516848
  14.9232043  46.6288848  59.0543219  16.1086879  46.8146615  59.8625782
  43.5680470  65.3666074  10.0432500  43.9989342  65.9774480   9.4326512
  43.2567055  65.9767740  10.7603404  10.3877997  40.0218429  75.2283866
  10.6940010  39.4667032  74.4649973  11.0714588  39.7562147  75.8533558
  12.4022678  52.9244147  69.1151999  12.3851724  52.3052633  69.9522889
  12.1510898  53.7662122  69.6109502  11.1674365  49.2995414  62.3908927
  10.3810661  49.2215953  62.9751514  11.3824711  50.2206800  62.4545499
  29.2014402  40.6685806  79.8051803  28.4302532  41.2772727  79.5630560
  29.6125122  40.5238028  78.8909878  49.0511728  80.9940000  20.0690746
  49.9955302  81.1639130  20.2819620  49.1754913  80.8422576  19.0823904
   4.9568452  55.8084909  59.4089874   4.2274796  56.3871794  59.7855174
   4.5573294  54.9563497  59.5681680  27.9390702  44.7560548  69.8387336
  27.1634277  45.0245277  70.3142489  27.9262453  43.7816696  69.9496688
  16.6326750  43.3767964  75.9923138  17.1012672  42.7488734  76.6574561
  17.2771009  44.1435036  76.0082411  22.5955652  43.0676355  69.1649444
  22.0466232  42.5239335  69.6425823  23.0926197  42.4668388  68.5471291
  24.3115225  49.5869835  66.5233250  23.3154266  49.5502050  66.7839241
  24.2538811  50.0263854  65.6921415  17.9089174  57.0534342  54.4123407
  18.1753838  57.9630705  54.1294982  18.1496342  57.0857952  55.3463106
  11.0185726  38.0807727  56.8210457  10.9916143  37.3025681  57.4332298
  10.1712842  38.1215119  56.4249331  12.6121852  50.0525323  66.6162632
  11.9722234  50.6435691  66.2549273  13.4425005  50.4399142  66.2608465
   8.6280697  32.0161173  13.5954116   9.3116943  32.7210942  13.8166447
   7.9527834  32.3022358  14.2382275  75.8332217  30.0580366  15.4919030
  75.9464067  30.1064486  14.5536579  76.4125252  29.3754752  15.7822861
  21.2481416  52.6756784  60.7867397  21.9997932  52.8221437  61.3899244
  20.5634606  52.3234503  61.3758240  20.9980305  56.3213546  62.7485127
  21.7024988  56.0969969  62.1763048  21.3319639  56.2249418  63.6786314
  14.6913088  60.5826897  66.1346156  14.7956567  59.9229828  66.8530123
  14.9868118  61.3862396  66.5863224  37.7282375  53.0078408  80.9438590
  37.4392530  52.3059861  81.5309328  37.0941243  52.8249313  80.2037838
  18.3019525  67.5543100  58.6888152  18.6347738  67.9445931  59.5231162
  17.8660607  68.3239609  58.3117828  26.6550056  51.5821989  72.1083433
  26.9560439  52.4968106  72.1716717  25.9291018  51.5109915  72.7842935
  21.6682490  62.7088294  62.9564221  22.4745891  63.2491399  62.7966610
  21.7321633  62.1601580  62.1046739  28.6380891  62.9836468  60.6165452
  28.0781166  63.6859654  60.2825644  27.9830377  62.3720398  60.9848169
  18.5270241  48.8547601  76.7864578  18.2340930  48.3613821  77.5968434
  18.4082780  49.7557829  77.0256613  27.5376539  62.5991352  57.2391892
  27.0376046  63.3974892  57.4857124  27.1179884  61.9840268  57.9096201
  36.0458387  55.1151597  79.5411239  36.8712110  55.3448485  79.0726286
  36.1371326  55.7325382  80.3066022  21.6874632  56.1734437  65.4406383
  21.3401392  55.3442939  65.8231100  21.1110065  56.8369909  65.9505515
  32.5632976  57.2833613  73.9118442  32.3426675  58.1984595  73.6121998
  32.9329584  56.9419438  73.0823160  22.7556037  55.8735764  71.9907663
  23.0124499  56.5859988  72.6055675  23.5786493  55.2907795  72.0926165
   4.4389677  39.5565204  20.1464716   3.5274324  39.5074865  20.3569138
   4.4643489  39.6862561  19.1982021  69.9718291  16.4215418  15.8692187
  70.3445199  17.3198426  16.2720388  69.6469000  16.7807217  15.0232459
  61.9530975  38.2661573   6.7028897  62.3031368  37.3725438   6.5691042
  62.7108875  38.6548056   7.2455252  24.2462526  56.6214729  76.0928275
  23.9547731  56.5653581  76.9944526  23.3838076  56.8293864  75.6048636
  17.6281700  50.7948774  69.2691821  16.7716930  51.2063798  68.9136627
  17.7506476  51.3232187  70.0995639  71.6547790  64.5912778  20.2996190
  71.6773057  64.1041429  19.4390541  72.0785928  63.9404753  20.8591776
  19.4635071  57.7582307  66.4657429  19.3842618  58.3573414  67.2499175
  18.7424226  57.1171064  66.6952550  68.9914770  20.3683366  10.8651593
  68.2860819  20.7678474  11.3192728  69.4173943  21.0662096  10.3548312
  41.6889560  81.7426089  20.6027935  42.6093808  81.8447469  20.5261672
  41.5723218  82.3162677  21.4163017  24.8505944  54.0647675  72.6134772
  25.8348402  54.1599097  72.5559042  24.8080084  54.1699078  73.6100178
  38.8057508  58.3750332  67.3581162  38.9530633  57.9925913  66.4695361
  39.6870922  58.2671282  67.7893151  24.3161116  56.6968636  64.8977212
  23.3678119  56.5870354  65.0575821  24.2397116  57.6273901  64.4612412
  72.7329323  31.4186189   8.9370996  73.6973517  31.3908264   9.2096032
  72.8037293  31.9073668   8.1152094  79.3530823  22.5776602  17.8198311
  79.5802844  22.0498186  18.5934831  79.9875392  23.2518399  17.7661849
   7.8746907  45.7141272  68.8221877   7.9771047  45.4646103  67.9124659
   8.4765995  46.4956007  68.8634963  38.9228864  60.9221826  75.0703668
  39.2858545  61.7039526  74.5605905  39.7366719  60.6168852  75.5271529
  25.6033862  64.7236471  69.0413612  25.0042656  63.9834806  68.7722269
  26.3400745  64.3192337  69.4602782  28.6109949  57.8087795  68.5458590
  27.9600797  58.4965261  68.2184725  28.7020659  58.1151227  69.4765883
  24.3880632  54.0248036  64.4494041  24.5094033  54.8978092  64.7687788
  24.5139185  53.5233635  65.2943519  29.2075559  76.0833632  58.8220308
  29.3866145  75.6966572  57.9728003  30.1199348  76.2193968  59.1249049
  75.9434186  14.4991303  28.0443695  75.8503938  13.8017417  27.3630275
  76.6402739  15.0963756  27.6514392  26.4688522  49.0368011  71.5400347
  25.5639368  48.8327172  71.8088080  26.4999831  50.0173912  71.7523040
  27.2946771  65.4679920  65.0470143  26.8667349  64.6075401  64.8830023
  27.4597149  65.6927040  64.0804502  30.7672491  64.5324267  63.9003099
  30.2785389  63.7027229  63.7057799  31.3305600  64.1760271  64.6174054
  29.2035318  59.1122292  73.6968864  30.1127010  59.4082993  73.7388632
  28.7882763  59.5790802  74.4276746   2.3138201  32.8380733  17.0234928
   3.0142470  32.3954892  17.6003290   2.3174801  32.2498013  16.2772490
  30.3935827  60.9169636  66.2316048  30.1717290  61.7372110  65.7088378
  31.3714033  60.9723934  66.1806534  17.0685826  59.6018800  74.2162505
  17.7359457  60.3432476  74.3073461  17.3974353  59.2825938  73.3750609
  31.8587329  61.7424828  70.2719730  31.7471680  62.1377292  71.1705110
  30.9067739  61.4568306  70.2079776  23.2363440  58.9931172  69.2623411
  23.4242636  58.2624658  68.6560196  24.0485724  59.5537769  69.1810675
  22.3853360  61.1769735  60.6552568  22.4897408  60.2024353  60.6554479
  22.3744759  61.3120520  59.6818657  19.1541691  62.1490602  65.2591133
  18.8475677  61.4906744  64.6712292  19.4180666  61.5740993  66.0637107
  19.9924482  51.2016693  79.0935039  19.1722964  51.2103960  78.5908211
  19.6604052  51.6613792  79.9209026  42.9879102   2.4147346  55.2806998
  43.6833786   2.9416257  55.7135870  42.3602300   2.2587574  56.0133445
  16.5094686  59.3291837  64.0415875  16.1943514  58.7937386  63.3187220
  15.7347995  59.8748640  64.2484745  12.5898518  56.0642514  66.0074495
  12.4068381  57.0402491  65.9055829  13.3699764  56.0853895  66.5939872
  31.6105342  49.8196062  78.4310871  31.2808491  49.6321901  79.3628776
  31.0689100  50.5668816  78.1898720  34.1097687  69.0683656  68.0092974
  33.3196417  68.5040528  68.1220628  34.1383803  68.9467247  67.0014924
  26.0464195  67.4286977  69.1108240  25.7374170  67.6735790  68.2265402
  25.8746182  66.4606271  69.1013116  27.5220250  56.6079381  80.2566266
  28.4346244  56.3502441  80.4081135  27.1582101  55.8241592  79.7914626
  23.8705027  59.0749365  63.6589817  23.9812971  59.4527937  62.7934105
  22.9633661  59.4503320  63.9049687  39.5580189  62.7275582  69.6138780
  39.4224318  63.4348809  70.2613198  40.3828110  63.0465233  69.2044256
  28.8535047  38.7698344  81.7759114  28.7057664  39.4240545  81.0626383
  29.3294894  38.0838848  81.2742056  32.9152061  70.7589314  73.3846110
  32.4454680  71.4052451  72.7184556  32.1784447  70.2385305  73.6330313
  26.6727940  69.8937763  73.9468737  26.4928939  68.9555007  74.2009248
  26.5653225  70.2908780  74.8318798  21.3963627  65.8619257  70.3368270
  21.8491583  65.6353028  69.4913269  22.0851500  65.8648018  70.9960093
  19.2264744  58.5212639  61.8299151  19.3741399  59.3133673  62.4146210
  19.7653170  57.8654189  62.2669487  31.9362727  57.8287705  64.8768410
  32.3274602  58.6687039  64.5615347  31.3099124  57.5946365  64.1985868
   3.2409392  55.0161115  64.1067178   3.0951057  55.9747296  63.9958757
   4.1946973  55.0149017  64.2328973  73.0825210  14.2702682  23.1948635
  72.6874983  13.7147179  22.5259647  73.4653638  15.0017714  22.5912861
   9.0970201  65.1023304  58.1222008   9.4029784  65.9338544  58.5354925
   9.9270462  64.6095836  58.0395675  26.3090204  58.8520639  67.3904844
  25.5294727  59.0952693  66.8284852  26.7125370  59.6601975  67.6393452
  23.1110627  51.9161563  58.8748480  23.9542657  52.3083925  59.2098687
  22.5631702  52.0367033  59.6537969  69.5124973  29.3273317  16.6509359
  68.8071554  28.6491724  16.6385347  69.0087492  30.0626898  16.1204534
   5.9610479  26.3377191  12.6695006   5.7728659  25.4833864  13.0961005
   5.1001244  26.8088118  12.8247777  33.5999806  63.7322729  74.9673147
  33.3068552  63.7935107  75.8987314  34.5179324  63.3462089  75.0776321
  19.7655788  44.3586064  64.9265078  19.1075195  45.0615713  65.0939938
  19.9494032  44.0970036  65.8751125  33.8010884  61.3864356  66.7073502
  33.6510736  60.5809782  67.2457539  34.6411392  61.1620927  66.2581342
  34.8093068  62.1214839  59.5064387  34.1068864  62.8143069  59.6695588
  34.4226746  61.3500362  59.9810401  46.1822538  66.4604594  66.1861712
  45.5665222  65.7264466  65.9678436  45.7243444  66.7365228  66.9995637
  19.1112989  60.0968885  68.1452929  18.2042625  60.4639470  68.4144780
  19.5848696  60.9399509  68.0596492  19.4311955  74.4067092  60.6401488
  20.0160272  75.2296379  60.5357118  20.1628974  73.7776441  60.5518258
  33.8456307  56.7552841  71.5443237  33.7809696  55.9588302  70.9859612
  34.7863590  56.9255811  71.5031534  68.9197731  14.1121462  14.9670234
  68.0914845  14.0109880  15.4795496  69.3467959  14.8210660  15.5621723
  29.3937596  49.3566996  75.1366352  29.2126340  49.6252332  74.1842984
  30.0957552  50.0110360  75.3674264  20.0036263  73.0415142  68.0305350
  20.7275405  72.3806138  67.9898619  19.5308153  72.7677712  67.1935736
  71.9571655  20.7193965  13.4070182  72.7749882  20.6954684  12.8571608
  71.7265806  21.6543461  13.3546187  41.5782344  72.5225131  19.4751536
  40.8819051  72.1036426  20.0323757  41.2217325  73.4157224  19.4107149
  34.3087448  62.3325415  70.6733728  33.4362220  61.9989217  70.4445672
  34.0301027  62.8250055  71.5076913  22.1654268  66.2912183  61.3016245
  22.1627887  66.7587549  60.4777901  21.3704647  65.6751648  61.1896369
  30.2783215  67.0675238  55.1233395  30.0407673  66.2757719  55.6214542
  30.3129524  66.7513174  54.1962318  33.9284913  50.0642266  69.8770752
  33.3241388  49.9911198  70.6585909  33.9557646  51.0092051  69.6993954
  26.1358656  60.4194757  62.2609728  26.2308920  60.3430415  63.1847429
  26.5298470  59.6107187  61.9077614  30.6185578  45.2677337  72.7007484
  29.6316276  45.3963575  72.8278065  30.9958853  45.3253809  73.5894146
  25.8974085  47.5428973  64.5849971  25.7526558  48.3869777  65.0407765
  26.5737896  47.7727078  63.8736053  20.2309137  47.8349228  57.2891729
  19.5006187  48.4137043  56.8601246  20.8767362  48.5905024  57.4055062
  18.8239135  54.7436869  63.6884398  19.6173353  55.2540320  63.4310227
  18.3487160  54.8117086  62.8058212  23.3327711  58.1669663  73.5220229
  24.0610440  57.9027262  72.9846538  23.0411400  58.9936989  73.0398704
  19.6788565  54.4331446  77.7579396  19.7486088  54.6237680  78.7515098
  18.9444630  55.0175896  77.5566848  12.9639158  52.5359359  72.0306042
  13.1279632  53.4419709  72.3703882  12.1683558  52.2809338  72.6134437
  24.8661893  48.4983148  79.6090412  25.1593742  48.6023140  78.7114928
  25.2541635  47.6160301  79.8572353  31.2261854  61.8538760  52.9257270
  31.2119788  61.1080388  52.2916049  31.4885792  61.3599176  53.7548503
  26.1031943  60.6077868  72.8527470  26.0266653  59.6627519  72.7111726
  25.5035799  60.8492864  73.5699227   7.0299907  14.2081961  24.4113397
   7.4687313  14.9586486  24.8592150   6.9168072  14.4757348  23.5325725
  20.2658710  62.7921850  68.0394062  19.9786749  62.9216076  68.9917054
  20.9007286  63.5510582  67.9839671  30.7685182  61.4805583  59.7184757
  30.0335609  62.1131598  60.0196705  30.5983008  61.4693488  58.7519018
  29.5664586  64.1282549  55.2454586  29.0965416  63.9108704  56.0724187
  28.8732268  64.0534763  54.5803757  21.7153010  49.3331677  67.2623283
  20.7998356  49.5326505  66.9317555  21.7126030  49.9778818  68.0330622
  15.0192201  38.8741930  74.2935550  14.8737588  39.5768755  73.5917900
  15.7423612  38.3228528  73.9079265  33.2786168  55.8880067  66.6906341
  32.6319133  55.3925007  67.2725545  32.6030037  55.9729574  65.9479065
  10.1380558  38.8532595   4.3835769  10.4693902  37.9064750   4.0759528
   9.7942834  39.1514757   3.5643858  11.1841043  39.8563000   6.5351425
  11.9542837  39.3700742   6.7008630  10.7991301  39.3784020   5.7703272
  14.8574206  34.6179755  11.6034409  14.0065497  34.7089666  12.0084748
  14.6130922  34.6028651  10.6618600  23.6363829  73.5226730  69.8455022
  24.4557547  73.4071531  70.3416569  23.7169450  74.4145474  69.5127271
  71.3908993  24.6479706   9.5936686  70.7336079  25.2747270   9.9231118
  71.9852159  25.1343875   9.0504815  25.5609485  76.3310780  66.5573774
  26.1661468  76.7291196  65.9415724  26.0745803  75.5611566  66.8670999
  25.1034388  65.1061580  73.8058528  24.8103312  65.0178164  74.7287430
  26.0536413  65.0071842  73.8521778  20.5476026  63.7869587  73.8398065
  20.7166923  63.7389074  74.8110227  21.4935098  63.8662683  73.5861420
  10.1553462  39.4359410  10.9517030  10.5823927  38.5944288  10.6340093
  10.4665292  39.4527921  11.8399757   7.8183991  40.9982874  14.8403161
   8.5017837  41.3796262  14.1999988   7.4958979  40.3115731  14.2247018
  24.7429087  71.1816504  64.8235674  24.2165109  72.0176863  64.6837052
  24.4845692  70.7063327  64.0166138  28.5509541  72.9991528  53.7788719
  29.4287298  72.6505571  53.7875965  28.0671977  72.2225640  54.1352393
  12.7447116  42.1886158   6.1948477  12.3968500  42.7969338   6.8530302
  12.2483210  41.3839962   6.3984140  35.3333469  61.1187972  73.0570203
  36.0087554  60.4175998  73.1601014  34.7527420  60.6505570  72.3967206
  43.4048610  59.9127129  66.7003618  43.1300973  59.9220884  65.7619904
  44.3573147  60.0767234  66.6045758  28.1664125  70.5784249  67.3400579
  28.7413071  71.2763448  67.0529682  28.6872933  70.2165236  68.1105498
  14.2457880  31.9697040  24.0297421  14.6144253  32.7443669  24.4178694
  14.9903281  31.6525306  23.4861693   5.2984542  14.7591356  53.3137216
   5.7403835  14.5040294  54.1610317   6.1083528  14.6090137  52.7081032
  16.3071800  17.8193888  47.1933522  16.1330838  17.0300705  46.6017619
  15.3905646  18.2098660  47.1257493  54.4514376  73.8136841  61.3140837
  53.6686556  73.9503801  61.7962309  54.3159284  72.8892698  60.9762562
   5.9842907   8.7716607  46.1143182   5.7018508   8.6730349  45.1981600
   5.9081210   7.9019316  46.4824323  19.9499324  17.7587275  58.0809693
  19.2673683  17.1629177  58.3917035  20.1805872  18.2173530  58.9179597
   8.6499132  16.0344113  53.4264257   8.0403969  15.2625101  53.2210488
   9.1659189  16.1055364  52.6253754  53.4533667  85.8458703  48.1823879
  53.3141614  86.6717778  47.7377521  54.4410775  85.8909841  48.3441907
  34.8578664  43.6917755  -6.2179548  34.2144813  43.9545349  -6.8871837
  34.9472078  44.4610234  -5.6422187  15.3655303  21.2895513  67.2296762
  16.3333142  21.4479470  67.2601546  15.1486258  21.4935017  68.1913177
   4.3222731  18.7625079  57.0025266   5.0752793  19.3776851  56.8478148
   4.3377966  18.2993058  56.1244517  38.4227341  46.3624214  -4.5936398
  38.6265475  47.2590823  -4.1950745  37.9958372  46.6837957  -5.4148341
  23.0430726  10.5486703  58.1031265  22.3706986  10.9554649  57.5391441
  23.1921441   9.7730953  57.5024620  17.9920356   8.7844250  56.9144376
  17.9756943   8.9434668  57.8700110  17.1294264   8.3456833  56.8031712
  36.8483593  47.0599672   0.0246107  37.7722043  47.2203402   0.1895520
  36.9096541  46.4648508  -0.7185149  14.3179911   7.8726187  51.0748971
  14.1149989   7.7182383  50.1404917  13.3983498   7.7917600  51.4565941
   8.7809697  18.5617960  58.9758013   8.7871606  19.1878411  59.7679942
   9.5232731  18.0052003  59.1949482   7.8228004  11.4365352  51.4583906
   7.9652954  10.4854326  51.7803982   7.3852587  11.2596130  50.6367665
  15.7787563  20.3551541  44.5981055  16.3249658  19.6505782  45.0297216
  16.4551956  20.8704375  44.1213540  17.2159388  12.6493864  50.4425728
  17.0750189  13.1507274  51.2934516  16.4751255  11.9739795  50.4931549
  12.0596523  35.0960707  64.2800854  13.0696641  34.9915223  64.3703069
  11.8082293  34.8014725  65.2081727  43.8186803  67.6239970  15.4615059
  44.1651350  66.7026584  15.6111619  43.1720293  67.6744483  16.2046260
  13.2072461  11.3541535  61.0733675  13.6429789  11.4221098  61.9689167
  13.7209624  12.0453078  60.6115558  32.6476277  59.5297123   0.3031014
  32.3205152  58.7368516   0.7006283  33.6270382  59.4887907   0.4022658
  33.7396348  65.2858565   8.0548393  33.6370409  65.8749596   8.8573551
  32.7695904  65.2857620   7.7769767  21.1083755  31.3710254  69.9059665
  21.0464897  31.3190678  68.9372605  20.7799042  30.4128061  70.1595049
  74.8806608  22.5858190  58.4601062  75.6155629  22.5900404  57.7993109
  74.6010785  21.6462275  58.2827886  50.0234718  54.0870822   5.2897082
  50.7252121  54.6625863   5.5663002  49.7897589  54.4046118   4.3982107
   9.2930011  31.7898579  51.8832772   9.8470690  32.4505142  51.5207651
   9.8970975  30.9982730  51.9080092  37.5250277  56.6523364   0.6650443
  37.7706729  56.6568696   1.6221472  36.9332637  55.8776374   0.7105467
  18.2024333  19.9902786  66.3870228  18.9070898  20.5179013  66.8001705
  17.8280820  20.6503406  65.7679911  42.2951915  59.8421516   7.0562483
  42.5936818  60.0374497   7.9757471  43.1042667  59.4151450   6.7056017
   9.4685592  23.7554516  62.1981990   9.4990489  22.8841870  62.5063225
  10.3036449  24.1755782  62.3715080  26.3109875  21.9217835  56.3925280
  27.1648009  22.4063326  56.4378524  26.6593875  21.0307989  56.1428532
  20.7438452  24.1847337  53.8980847  20.4060036  23.2937736  54.2360702
  21.2143690  23.8656032  53.0959233   6.7497955  34.1354314  67.3249597
   7.3597062  34.8132213  67.7710459   6.0819767  34.7478154  66.9391858
  10.7967895  37.9715548  60.9595998  11.4521493  37.3258033  60.6280088
   9.9572298  37.5459013  60.6335530  22.3798976  13.9690021  56.9932872
  21.4624310  13.6840742  57.1609924  22.4081510  14.8540896  57.3385231
  17.4383185  23.6614020  55.4565755  16.7293171  23.0043705  55.3797577
  18.1988282  23.0701516  55.1811179  20.2798953  21.1577062  67.6864893
  20.6167625  21.0274975  68.5804111  20.2460827  22.1263880  67.6105993
  40.4094965  64.3109393   7.0323503  39.9796633  63.9470250   7.8844902
  40.5827885  63.4813288   6.5761726  13.8793405  28.0333920  59.8010843
  13.1778302  28.1617924  59.1487808  14.3969338  28.8688853  59.6082701
   4.2684145  28.4190534  63.6466817   3.4647039  28.6640233  63.1347097
   4.6742138  27.8418450  62.9547482  13.1078793  19.7527595  54.0308809
  13.1968899  19.3827422  54.9094210  12.1249174  19.6934858  53.8871789
  29.0284415  58.0662219  -0.6065219  29.1202142  57.0488602  -0.5664174
  29.3835058  58.1567910  -1.5138774   4.2183903  36.9437536  68.7579598
   3.5796988  36.2901210  68.3775903   3.7129692  37.7782753  68.6402903
  20.1560395  22.5203402  58.2114262  19.2124685  22.7308051  58.2110479
  20.4113469  22.9538580  59.0231275  13.4723192  33.6996022  52.6583143
  13.1462565  32.8086070  52.9101518  12.7215069  34.2284859  52.9777378
   7.9699642  27.6814924  58.1613012   8.2062778  28.6361308  58.1064958
   7.2129397  27.7487157  58.8320092   7.5249407  24.4688048  60.4629368
   8.2718202  24.9659103  59.9941317   8.0817672  23.9826829  61.0560870
  19.6600729  30.1380873  66.1378060  18.9494713  30.0853367  66.7860425
  19.1491474  29.9879385  65.3230606  16.6583595  37.7961899  67.2347187
  17.1355424  38.6335686  67.3860572  16.9898955  37.5503165  66.3764465
   7.2069977  21.2884487  48.0292991   7.7980522  21.6641203  48.7736546
   7.5339911  21.9137125  47.3513296  17.4051837  26.4242528  54.7192742
  17.6892055  25.5643615  55.0295508  17.7707853  26.3988644  53.7746791
  19.4333392  15.3314160  59.6885512  19.7416385  14.8163288  58.9488721
  20.0843059  15.0791610  60.3660588  43.0896724  57.6498758  10.9862701
  42.8752737  58.6149333  10.8536052  43.9304893  57.6486778  10.4589849
   2.4958070  25.9184171  59.8623742   2.8099462  26.3097792  59.0180869
   3.3286945  25.3991233  60.0837539  24.8223421  17.6089238  55.5895366
  24.6569829  17.5523177  54.6212365  24.0250155  18.0482858  55.9103656
  10.6459934  14.4603282  54.9383491   9.7757754  14.6195496  54.5079524
  10.5918937  13.4846550  55.0494052   7.4960385  15.9071364  57.7196212
   7.9038334  16.5431376  57.0379428   7.3828067  16.5383715  58.4644851
  11.4098799  26.2108456  50.5132303  11.9739785  26.4652640  51.2506487
  11.4881284  25.2343261  50.5084341  17.6323438  28.6130600  56.6830769
  17.3436253  28.2850804  57.5521920  17.5144634  27.7641337  56.1617325
  22.3691778  14.4335432  65.2521503  21.4378582  14.4341202  65.4606416
  22.3129121  13.8716063  64.4684729  11.9903347  33.7599069  61.8875736
  11.5713844  32.9492918  62.2124207  12.0715815  34.3066068  62.6948457
  14.4013036  43.7851657  55.0916134  15.2717730  43.8758583  55.4823173
  13.9957398  43.2292200  55.7695117  12.9341362  23.2530331  60.9687261
  12.7105747  24.0852064  61.3943104  12.2521924  22.6919930  61.2995782
  32.0998981  16.2563604  70.3280374  31.2487901  16.1066788  69.9003142
  32.0264943  17.2382365  70.4467401   4.8756486  24.3211748  59.5288357
   5.7839463  24.5072998  59.8797497   4.5227163  23.9186434  60.3375350
  19.4558268  22.1590461  63.1462331  19.3827785  21.7668401  62.2203530
  19.5377974  23.1080038  62.8416551  20.3305936  32.6532020  72.5948036
  20.2957781  32.4254113  71.6577635  21.3368146  32.5390609  72.7017436
   0.5090625  22.7975480  58.3250947   0.1727943  22.6092944  59.2497160
   0.5085167  21.8908637  57.9358563  17.9750838  37.7000978  64.8514992
  17.9777070  36.9095854  64.2732321  18.6049089  38.3016844  64.4405633
  15.4408682  36.8713278  51.5186538  15.3032037  37.1201283  52.4515580
  15.2003945  37.8308353  51.1495127  20.2652171  33.8271799  67.8764057
  20.7520646  34.6106570  67.6049763  20.9431768  33.1624421  68.0488300
  34.7512106  61.5696925   1.7942150  34.0220253  62.0473504   2.2754235
  34.5967400  62.0058429   0.9046740  78.6073263  32.3455282  53.9841523
  79.5574975  32.2131604  54.0011206  78.4757638  32.9569536  53.2946589
  25.4926835  31.3141712  67.8776880  25.5241096  32.2438051  67.9575829
  25.9129506  31.0352424  68.7343541  44.3382590  58.3443044   5.7593145
  43.9910985  57.6801367   5.0681319  44.4827882  59.1421740   5.2083193
   5.9867951  44.5988533  64.0697685   5.6207008  44.0633264  63.2694694
   6.4727517  45.2789589  63.5723511  14.9715871  27.5551763  51.2983183
  15.2145648  26.9572183  50.5824167  14.2312083  27.1326192  51.7235411
  22.0485150  44.2770121  63.9119769  22.3909573  45.0109558  64.3053455
  21.1301406  44.2144236  64.2685810  42.5526959  60.3493557   9.8071840
  41.6656533  60.6289645  10.1454930  42.9874649  61.2478491   9.7774932
   5.7367705  36.3885859  71.7338263   5.0081546  35.8908468  72.0993632
   5.2599765  37.0482493  71.2188692   8.2725492  27.4193155  66.7359373
   8.1232573  27.4892635  65.7176742   7.3427462  27.6519924  66.9659593
  50.2008249  77.7405218  17.4721124  49.5227556  77.3174262  16.8963950
  51.0097086  77.4152956  16.9863977  26.3387430  57.1919445   4.6954151
  25.8040361  57.7579992   4.1045156  25.8049187  57.0287211   5.4536765
  26.9897128  72.1537125   8.9179717  27.0027492  71.1760252   8.7352809
  27.3116200  72.1794655   9.8447054  10.7506459  29.2872314  52.2107386
  11.5272034  28.6554877  52.4220593  10.4244056  28.8488905  51.3754393
  18.0600641  19.0039349  62.8038467  18.4512512  19.2929084  63.6253306
  18.4328623  19.5852229  62.1506134  44.0264001  78.6838237  20.8292193
  43.0895291  78.8154073  21.0635465  44.4985189  79.2198634  21.4628018
  14.0452885  24.6203785  51.9691297  14.1875360  24.6683131  52.9415067
  13.6826475  23.7163650  51.8852732   0.4670402  33.4458637  61.5318906
  -0.3874715  33.3532548  61.0565795   1.0728415  32.9767312  60.9013467
  39.4176499  49.1706963   9.8624778  38.9845588  49.7923132  10.4516416
  40.3825059  49.4523398  10.0050194  18.1188563  33.4365596  64.4541326
  17.6688413  33.8190830  65.2331859  18.6416210  32.7747915  64.9888157
  20.6742829  36.3867055  53.8056678  20.1216059  36.5056248  52.9891379
  21.0360234  35.4726559  53.5632339  10.7588392  31.4681792  55.3168046
   9.9542242  30.9776226  55.1652529  10.8607428  31.2866125  56.2838034
   9.0454720  33.9213660  47.2891955   9.3137479  33.1325570  47.7215052
   8.1201463  33.7222258  47.0420434  21.1073620  34.7732141  77.6052033
  21.1357053  35.5925660  78.1277271  20.4169039  34.2935907  78.1083503
  73.8736339  10.7221517  52.9297450  74.7849423  10.2951229  52.7517754
  73.6613640  10.9731503  52.0206720  46.6116167  60.5910450   7.6873332
  46.3975467  61.2406236   8.4141804  46.1939398  61.1050650   6.9120474
  17.6547300  17.0106591  60.7521512  17.8483015  17.4650259  61.5866724
  18.5237076  16.5137582  60.6133510  19.5389867  36.4172057  69.5614525
  20.4458052  36.2309994  69.9281564  19.7877096  36.7045074  68.6093629
   3.5681135  33.6859226  58.3019126   3.3935460  33.9562740  57.3726358
   4.4696304  33.3689930  58.1604852  40.7425548  53.6821255   1.2530956
  39.9757036  53.4122362   0.7335197  40.8383914  54.6150120   1.0795054
  12.5227863  30.6952710  68.0564884  11.7102228  30.2302039  68.3947819
  13.2177045  29.9967041  68.3274312  10.5367796  22.1579757  59.3225641
  11.1791686  21.4043594  59.2950473  10.8210592  22.7281065  58.5872329
   6.3194724  24.4711041  44.8626425   6.0481611  25.4494530  44.9451475
   6.1863585  24.3729081  43.8962666  30.7327944  72.9211743   8.5586548
  30.9829820  72.5981573   9.5111017  30.8341317  73.8807953   8.7398667
  20.0554667  42.6838755  59.3341105  19.3343798  42.7613854  59.9802445
  20.5112215  43.5420981  59.4555617   0.9825265  14.9198936  51.9664010
   0.1527374  14.7479721  51.4148197   0.6428315  14.6135824  52.8228657
  15.6521027  30.7023986  67.6568485  16.5356689  30.3383398  67.7553511
  15.2298176  30.3038712  66.9125699  72.9582848  23.7974607  55.9573882
  73.4551836  23.1714110  56.5649096  72.9664557  24.5639927  56.5488150
  30.8190099  21.7274896  67.3409963  30.8269071  20.7508263  67.2815185
  31.3903350  21.9900881  66.5669242  58.7412759  54.9665006  11.2505668
  58.0707532  54.4102139  10.8283823  58.1625798  55.6510184  11.7442996
   6.4360251  32.8657027  47.3582068   5.9981537  32.8585146  46.4468314
   5.7347645  33.2432870  47.9101210  53.9463342  55.3405769  14.6848984
  54.2898653  55.4444957  15.6020687  53.1052480  55.8034029  14.8075775
  22.0207419  31.8408141  67.3178274  22.3197668  32.3105984  66.5289473
  21.4248087  31.2128563  66.9124229  13.4897506  27.1646205  66.7645596
  14.1796027  27.6990077  66.3573450  13.6920210  27.3462766  67.7257213
  13.1214318  18.7672796  58.7636625  13.9980962  18.3848192  58.9055427
  12.9225524  19.0621327  59.6786815  14.0409225  18.2464179  40.8240133
  14.2292667  18.0848914  41.7603689  14.9212238  17.9539296  40.4378778
  31.9201849  72.2088771  10.7891468  32.7058569  72.6460211  10.3950628
  32.1950409  72.1376510  11.7586239  37.5568050  54.0804501   4.3611175
  37.6911998  54.9411473   3.9527876  38.5034721  53.7429438   4.3749330
   8.7955845  27.8266068  43.0656286   7.8410108  27.6230897  43.2955789
   9.1301175  26.9320224  43.4806375  28.3689973  23.2593909  62.5296973
  29.0895509  23.8392638  62.8348787  28.3984755  23.4714317  61.6016138
  17.2822270  11.8856680  59.2237985  17.6673732  11.5770701  60.1070433
  16.3701135  12.0769998  59.5433236  23.9535168  22.2116771  57.7083221
  23.6534964  22.9621230  57.1560769  24.7447309  21.9487153  57.2456897
  43.8747737  56.1340322   3.8019819  43.9560240  56.5208507   2.9592158
  44.2354817  55.2210655   3.7217527  11.2797378  11.2721531  55.6305104
  11.3627795  10.7391172  54.8456911  12.0127364  11.9226384  55.5739507
  22.2834359  18.7679583  54.8830201  21.9697535  19.5220123  55.4802476
  21.3754001  18.4167603  54.6738785  29.1270400  44.0697932  -1.8908109
  29.2422014  45.0035716  -1.7153378  28.7025685  44.1331415  -2.7644340
   3.4554413  15.1361987  50.8272541   2.6550440  14.7524452  51.2926934
   4.1500032  14.9029794  51.5070922  40.4412908  55.0014506   7.1744192
  39.7765489  54.2987037   7.4413686  40.8167847  55.1580348   8.0452538
  14.7721592  19.9349222  50.1182059  14.7981638  19.0833862  50.6096038
  13.8540961  20.1110877  50.1095631   2.7511674  30.3522705  67.9727206
   2.5974186  31.2609657  68.3265267   3.4604145  30.4860048  67.3211403
  10.2209728  39.4738910  40.1626840   9.8917788  38.7003858  39.6587859
  11.1502396  39.2317429  40.2627778  36.9202856  67.4463721   7.8946227
  36.7442180  67.3676919   8.8383789  36.9985457  68.3597609   7.6984207
  50.9232416  51.3476303   9.4131841  50.5172785  52.2364909   9.5622114
  51.0040188  51.4338295   8.4265315   5.6386520  26.1910833  62.5046927
   6.2376629  26.9290145  62.2805263   6.1776158  25.6309744  63.0423114
  17.4293092  21.9636419  64.7858473  16.8881165  22.7371044  64.4787699
  18.2215047  22.0886529  64.2244096  14.3314908  38.2259539  59.3811858
  13.8478158  37.4509476  59.6764064  14.0576549  38.3796754  58.4834451
  76.2325153  15.0492517  58.7128083  75.9883650  14.5625887  57.8707476
  77.0256136  15.4591890  58.4279330  19.8519157  17.7090063  54.8390756
  19.5858726  17.6453716  55.7771066  19.2811419  18.4428782  54.5470958
  22.7843587  34.9719502  66.5053579  22.0792727  35.3779023  65.9831333
  23.0432457  34.2081031  65.9709344  19.2394852  21.1340167  60.6224457
  19.6317854  20.4304183  60.0742355  18.7123742  21.6663901  59.9881033
  18.4422878  44.1646831  61.3704720  18.4521015  43.8967716  62.3049430
  18.9581266  45.0280487  61.5460477  14.6166589  44.0381971  64.3643020
  13.9631617  43.6817648  64.9782027  13.9960604  44.4532099  63.6979989
   9.8620593  44.0874819  62.1311498  10.3527633  43.5375799  62.7889134
   9.3775562  43.3953554  61.6632565  17.3419196  35.4727259  58.9995317
  16.6662134  35.3282922  58.3180472  17.3577041  36.4569704  59.0609972
  25.6964984  42.5988003  68.1198066  25.2583928  43.4904881  67.8928601
  25.2487330  42.0885872  67.4434130  22.3767432  38.4510513  54.7091894
  21.7111306  39.1910424  54.5900440  21.7853474  37.6509620  54.5558920
  19.1798444  36.4130903  56.6523400  19.2927897  35.5003272  56.9863400
  19.4759579  36.3422959  55.7372444  19.9125453  45.3081239  56.2974103
  20.6291686  45.4876105  55.6406525  19.7953717  46.1872232  56.6892401
  21.9843497  52.7103855  78.4153654  21.4849524  53.5792827  78.4407149
  21.1226529  52.1629461  78.5209261  11.3957840  45.9521020  68.3902872
  12.3514724  45.9789515  68.5410984  11.0691669  46.0273554  69.3291759
  23.3188549  41.0399595  67.3395221  23.8928628  41.1617315  66.5364144
  23.6043197  40.1867758  67.6542965  15.1335138  28.7635838  65.2700087
  15.9681937  28.8841531  64.8881237  14.5618526  29.2239165  64.5621430
  24.2989090  35.2768567  57.2987066  25.1319674  35.7119638  57.0817609
  24.1038507  35.5383159  58.1924219  24.8570238  42.2414277  65.6459323
  25.8407419  42.3264915  65.8583685  24.7487341  43.0258492  65.0340827
  20.0318405  44.6658750  72.0418758  19.4706816  44.4962674  71.2572178
  19.4177637  45.2200432  72.5627764  16.9657546  32.0573737  53.1087650
  16.2110108  31.7482472  52.6091055  16.7412880  31.7198436  54.0102612
  17.3068421  40.9541510  61.9226183  17.6171544  40.0508051  61.8784695
  18.0488033  41.3399648  62.4472483  44.8661790  74.1918705  14.4905086
  44.8916638  73.8797077  15.4348536  45.7938138  74.5331823  14.4366161
  23.7539565  47.4170728  69.8422848  23.2665460  46.7465742  70.3823875
  23.8575094  48.1396055  70.5366288  12.4922810  42.6448158  66.2291579
  11.9906308  42.4576960  67.0533820  12.3281883  43.5769711  66.1555722
  21.2536994  37.9309806  60.8750691  20.3354856  38.1897400  61.2230408
  21.7650607  38.5265515  61.4133905  15.4143559  43.2211730  70.8307464
  15.4863807  42.2838084  70.5060307  15.9576122  43.2006315  71.6421173
  23.5402330  24.4773320  72.1305752  23.4727328  25.3805441  72.5493574
  24.5320917  24.4942027  71.9645793  10.7551545  44.9496681  57.9548444
  10.2585069  45.8287032  57.7870494  11.5320175  45.2125552  57.3846105
  17.8438056  33.6113059  56.3321885  17.7491082  32.6847756  56.0278908
  18.5835649  33.5209575  57.0057228  13.9619015  27.9967807  69.3791741
  14.9300439  27.8508497  69.7069728  13.5568541  27.7123235  70.2100992
  12.8514677  42.3452726  61.7617019  13.7145297  41.8624022  61.5473380
  12.4300185  42.2113709  60.8977518  19.4262351  30.5725610  57.2698519
  18.8354466  29.8416850  56.9641911  18.7808840  30.9115624  57.9843474
  22.2026139  39.6889863  77.8501077  21.9135104  40.4022619  78.4389139
  22.4978799  40.1643165  77.0363708  20.3991068  41.5476445  69.8679948
  19.9491431  41.8040884  70.6657562  21.1968685  41.1131662  70.1781166
  25.8521103  56.4699733  70.1320231  26.3212134  55.7608892  69.7240477
  25.2942082  56.7806602  69.3770259  30.1930945  41.8488733  71.9980732
  30.2310236  40.9551902  71.6386004  29.3400978  42.1473535  71.6176171
  11.6090143  23.7421483  66.1666167  11.4256969  24.5006603  66.7766898
  10.7913226  23.2170084  66.2395714  17.5051563  64.6716122  52.3610437
  18.4038297  64.2627665  52.6090429  17.3119250  65.1460519  53.1911533
  62.2522508   8.1259035  12.0484139  63.2355790   7.9475403  11.9240822
  62.3816574   8.9837204  12.5259948  17.9856007  34.4233335  69.1392070
  18.5519199  35.1939041  69.4718415  18.6999364  33.9543226  68.7160586
  12.3781355  42.9205991  78.4988156  11.7843206  43.6296629  78.2246495
  13.0628862  42.8792864  77.8210256   5.1195249  49.8354837  58.9520826
   5.6991733  49.5167982  58.2175603   5.6537023  50.4833408  59.3427158
  23.4935212  54.1157889  67.4100842  24.1786097  53.4986318  67.0409770
  23.5335928  53.8388325  68.3432879  24.6471838  44.9581479  67.6323202
  25.0717842  45.8314689  67.6510544  23.7745500  45.1322119  68.0365276
  14.7469452  34.8157487  64.0227779  15.1500243  35.6670555  64.0206373
  15.4139705  34.2537047  64.5147211  18.3164684  50.0483901  56.8621769
  18.5438534  50.1843714  57.7701489  17.5740288  50.7546168  56.7886656
  21.1177393  37.2254715  79.1522156  21.2809876  37.8809607  78.4304121
  21.3654286  37.7369835  79.9517002  26.3347546  50.9002407  63.9676232
  27.2899456  50.6911020  64.0002186  26.2781156  51.2160107  63.0084784
  18.7324734  35.6444080  62.8794763  19.0000750  34.8076778  63.2566638
  18.0900880  35.3044594  62.1851097  41.4445331  69.0040685  12.1284423
  41.5828401  69.9976156  12.1007734  40.5913761  68.9702031  11.6249617
  16.4583733  48.5071467  66.9780567  16.8280337  48.1390995  67.7765684
  16.1918466  47.6827278  66.4962292  22.0785645  41.0304014  60.2357293
  21.2631192  41.5495504  59.9349215  22.3887111  41.6459198  60.9656396
  21.3672562  36.4748132  64.5746500  21.6927178  37.1988813  64.0077817
  20.7823918  35.9842388  63.9893496  18.6124903  36.3691874  51.3779587
  18.0126386  36.0625027  50.7555894  18.3088022  35.9160335  52.2344298
  21.6441059  33.8458290  62.7029688  21.2554216  33.6213689  61.8178628
  22.5870535  33.9917666  62.3712681  63.8016664  12.4058947  10.8088213
  63.4588241  13.1197448  11.4109367  63.0361496  11.8149885  10.8242486
  14.3163185  46.7296536  76.2716959  13.8219310  46.7545001  75.4373067
  15.2348508  46.9523631  75.9197950  26.9821003  51.1913236  68.7009578
  27.2029059  50.2201391  68.5880799  26.6782821  51.1923386  69.6448786
   6.1587599  37.6905815  67.1351414   5.8535692  38.5654021  66.7942465
   5.3616900  37.3944885  67.6410935  16.6632681  42.7506050  73.3478845
  16.4997893  43.1866209  74.2032809  17.6024922  42.6651748  73.3458054
  11.0717150  42.5168710  63.7092090  11.5518426  42.4248568  64.4938173
  11.7768117  42.3336703  63.0071802  23.7353062  42.9428347  71.6891150
  23.4084531  43.7264323  72.1928662  23.7913271  43.2992882  70.7613913
  34.7528451  47.1605637  70.7373622  34.1657830  46.6133849  70.2503709
  34.6535511  48.0389016  70.3443152  23.3273364  38.0310644  50.9569135
  23.7215165  37.1867230  51.2070362  23.7933215  38.6242933  51.5576962
  22.7328876  32.8048592  64.9111195  23.3687388  32.1293667  64.5262906
  22.3320351  33.0922687  64.0382562  21.1288818  32.4739964  60.3344113
  20.6074464  31.7046082  60.6470967  20.8669914  32.5044306  59.3978147
  28.1566887  34.1560774  70.5181642  28.3066540  33.2898933  70.8521044
  28.7639245  34.2784306  69.8062203  21.8517139  27.0656442  68.2291173
  22.7952773  27.0202633  68.4608661  21.5831085  27.6528836  69.0185171
   5.8375056  44.1410751  66.7284677   5.0815228  43.5009620  66.7143182
   5.8250817  44.3819530  65.7435244  55.3662150  72.1159966  16.7985380
  55.1670264  71.2897981  17.4025944  55.8034510  72.6829321  17.5141792
  16.1940063  34.5626805  66.2651941  15.4805071  34.5028613  66.9351522
  16.8569792  35.1131242  66.8011765  21.7300603  39.3306175  73.6882187
  20.7955069  38.8798338  73.5220586  21.7975412  39.6718402  72.7688551
  20.2303296  35.4986232  59.8295495  20.3778796  36.3406333  60.3537979
  19.2520520  35.4794807  59.7384883  11.1645461  42.1914247  59.3922306
  11.0079199  43.0204907  58.8322527  11.7725197  41.7496995  58.7742671
  16.7853544  42.8914009  65.2394365  16.0231245  43.2863242  64.7844289
  16.7503001  43.4708952  66.0407845  28.6094129  56.4287118  77.2034578
  27.9471135  55.7605844  77.4229531  29.0363177  55.9837067  76.3920094
   6.1793530  41.0304153  66.3242719   6.2269123  40.3999426  65.5280707
   6.9632697  41.5799488  66.1102598  19.6884403  39.8058043  64.3303316
  19.6368811  39.6920606  65.2719891  19.2140635  40.6883716  64.2165174
  35.1878090  51.1399429  74.5522984  34.4548410  50.6460737  75.0036791
  35.7577349  50.4483938  74.2713504  16.3092730  67.3069456  47.1728493
  17.0961422  67.7517742  46.7923243  15.8520020  67.0345299  46.3295650
  21.9581699  49.8519505  57.6349651  22.8170105  50.3507648  57.9563541
  21.3453098  50.6258651  57.6555286  30.8419309  37.1990841  80.7921746
  31.4573522  37.9202399  80.9354850  30.8743985  36.7172646  81.6035013
  37.0145276  70.2135199  47.7931774  36.5306752  69.7286766  48.4671629
  37.9203570  69.8319731  47.8865516  30.8703885  47.3847919  70.7038312
  30.9884596  47.0148125  69.8001646  30.1545548  46.7945323  71.0641726
   9.2429516  22.1840448  14.5319642   8.4749846  21.6144251  14.2251466
   9.6627097  22.2847777  13.6453707  46.2932830  50.4664475  59.6207431
  46.4739527  50.8196562  60.4688987  47.1390733  50.6659289  59.1503754
  43.6039091  51.3315543  69.6885272  43.5824816  50.7160939  68.9271087
  43.9522725  50.7770051  70.3999923  28.8399820  47.4285463  66.5558767
  28.9014087  48.2298122  67.1473279  29.6886639  47.5244238  66.0835124
  40.0468115  54.2178693  78.4459835  39.8799416  53.3215420  77.9976724
  39.3354651  54.7443633  78.0449047  19.4352613  52.0960710  58.6642686
  20.1025255  52.3347175  59.3258516  19.4571226  52.9276024  58.0909638
  48.2034929  45.1751137  61.9627900  48.2980540  45.4817143  61.0384732
  47.9212976  46.0337394  62.4059603  31.3873011  55.1085676  68.2529095
  30.7593973  55.6884075  68.7309069  31.8631813  54.8113667  69.1050592
  23.5804730  52.8830928  62.1909684  23.9472381  53.3633640  62.9676473
  24.4004618  52.3350150  61.9478099  27.7248656  61.0416166  68.4424175
  28.3638515  61.3050095  69.1426894  27.7602585  61.7885657  67.7980683
  22.6816174  65.5014067  56.8606098  22.9114957  66.2493738  56.3480860
  21.7069877  65.6917891  57.0679882  37.3028712  64.7923824  73.3457496
  36.9776230  65.4960430  73.9557551  36.6881852  64.0785386  73.6240537
  19.8504157  20.3913198  14.9674216  19.2352250  19.8706955  14.4049856
  19.4308529  21.2720971  14.8509303  31.0970216  63.2988153  46.4671266
  30.3682271  63.1771957  47.0286237  31.7985240  62.7328891  46.9269384
  38.6390227  55.7300548  60.0401052  38.1923093  55.1641919  59.3992169
  38.6493155  56.5951891  59.5426144  42.6802977  70.8535408  55.5695638
  43.4816561  70.5797182  56.0395145  42.3222720  70.0394354  55.2002782
  22.2988669  67.8751689  63.5642094  22.3312639  67.1838600  62.8752426
  21.3520849  68.1965938  63.4646319  44.9000595  37.8882840  66.7590294
  44.9240216  37.2646324  65.9776693  45.4338887  37.4367197  67.3859443
  38.4734171  61.0384188  66.2470302  38.9571259  60.6705509  65.4409585
  38.8881576  60.4594314  66.9225591  21.3683323  24.8255910  21.9743058
  21.9363442  25.3505806  21.4183308  22.0093232  24.2562793  22.4459212
  46.1578047  61.7032055  62.4895315  46.5450037  62.3421135  61.8269986
  47.0339471  61.2275441  62.6598456  19.7452519  62.8561242  55.9493012
  19.7340356  63.3777500  55.0797081  19.8841493  63.6347023  56.5097022
  44.3250390  58.9589627  69.2191621  44.2280889  58.0300188  69.4537059
  43.8497452  59.0159102  68.3309187  19.5137782  50.7877364  54.3373335
  19.0374929  50.3325685  55.0421288  19.4324956  51.7387454  54.5969462
  20.3493952  66.6676542  51.7458719  20.2893074  67.6763499  51.7856411
  21.3046046  66.6553482  51.5138404  30.3268922  65.9120641  52.6850332
  30.1947506  66.3930153  51.8380919  29.9197738  65.0060749  52.4031936
  42.0644516  59.7435859  73.1672609  41.7563929  60.5428612  72.6676010
  42.6304485  60.1912965  73.8712842  25.6791123  63.5746248  64.2639318
  26.0629647  62.6890972  64.2604229  25.2842448  63.5828364  63.3910972
  33.0599168  46.7178606  67.2747970  34.0156464  46.7285606  67.2375256
  32.8677065  46.0985325  68.0142576  21.7923047  54.8262117  58.8894849
  22.6718207  54.9716114  58.5082854  21.9765037  54.3099437  59.6889396
  29.3738981  63.5402397  51.9323794  29.9811832  62.8614284  52.2917562
  29.5011817  63.4651563  50.9946696  17.8398106  54.8903529  61.3232799
  18.5270801  54.9348455  60.6031508  17.0564345  54.5426693  60.8523251
  28.3558178  55.1773153  69.3220377  28.9430648  55.1873691  70.0979262
  28.4065597  56.0878317  69.0109420  17.3678634  48.8488500  73.0165678
  17.3125895  48.3486639  72.1789044  16.4665595  49.1889881  73.1363868
  23.8857276  20.0079764  10.2355054  23.3040755  19.2475567  10.2778466
  24.4865295  19.6644871   9.5281264  48.2083695  69.0938941  64.9548652
  48.9022664  69.3813171  65.5404340  48.3979073  68.1218433  64.8639985
  42.8067747  52.8877963  61.4554102  41.9753295  53.1206491  61.0090425
  43.3375261  52.6192198  60.7011579  33.0058325  60.6096080  61.0862521
  33.0964212  59.7860414  60.6217507  32.1219653  60.9286922  60.7551460
  39.3137359  56.3239740  65.5282189  40.2859141  56.3116296  65.3948488
  39.0952304  56.5174931  64.5775442  32.8489549  64.1265968  54.3853304
  32.4216572  63.5262709  53.7279248  32.0816411  64.2469514  55.0022909
  27.6570724  54.4378694  65.2699067  27.6760425  54.6538004  64.2724194
  26.7472141  54.5843108  65.4061451  39.0405176  56.5955401  62.8740869
  38.6416874  55.7504088  62.5866940  39.5299494  56.8763714  62.0932696
  20.3887140  51.6078135  64.5911093  20.0362875  50.9315813  65.2099018
  20.5532030  52.3380318  65.2057371  50.0799767  58.2437913  62.7162311
  50.1221719  57.3385647  62.2873520  50.7378953  58.1346433  63.4433770
  31.3343897  67.9268626  67.1668312  31.9137565  67.1985397  67.4655035
  30.8753215  67.4801620  66.4122349  38.4522257  55.0376530  67.8709226
  37.5070150  55.1144104  67.5767923  38.8439346  55.3067232  67.0245666
  23.3303881  62.5927223  55.5147802  22.8410552  62.4989699  54.6309891
  23.1162019  63.5548402  55.6661807  24.0943882  68.6961692  71.3847342
  24.7329851  68.7416351  70.6437744  24.1661724  67.7405679  71.6229774
  69.0051791  17.4312514  13.3475260  69.6610389  18.1105501  13.0986886
  68.1454271  17.8776707  13.2189573  13.4962312  28.8137777  18.2678592
  13.1767992  28.0603828  18.8127609  13.0978761  28.5655632  17.4174696
  46.5591350  53.9888416  68.4450155  46.4501711  54.5011500  67.6174662
  47.2267968  53.3691409  68.1521640  57.5328002  53.8764985  70.8108241
  57.5993010  54.7849099  71.0132451  56.8498166  53.8003185  70.1179022
  46.7416629  51.5072170  62.2804073  46.0479623  51.4977109  62.9697262
  47.4645046  51.0369044  62.7630845  31.3905486  59.9475012  54.9961155
  32.2997248  59.6010299  55.0208875  31.1507287  59.8716250  55.9391006
  50.1829380  46.5978984  65.2818475  49.7698196  45.9297025  65.8990898
  51.0412264  46.1361511  65.1033873  57.9353938  41.4438738  58.2334826
  57.9970825  40.8459508  59.0651606  58.6264400  40.9363158  57.7112365
  48.0896826  52.3418139  66.9049079  47.9829111  51.4350079  67.0355189
  48.6548138  52.4322209  66.1057268  26.0001726  46.1887912  79.8175248
  26.2271498  45.3685035  80.4039847  26.5514944  45.9318851  79.0788606
  23.3624188  55.5672824  61.3317787  24.0318650  55.7813671  60.6564007
  23.7080210  54.8060841  61.7834941  33.7290237  52.0373069  77.0918859
  33.6053693  52.4910802  77.9642062  34.2561293  51.2773463  77.4062744
  28.5444363  59.3375493  64.8461077  28.2618509  58.5531746  65.3573215
  29.4378630  59.4596485  65.3233624  25.5772736  55.3341080  59.9094943
  25.5059219  54.3548542  59.8841763  25.1471707  55.5563333  58.9991494
  56.9133280   4.7869890  63.2507327  57.4047429   5.5926297  63.2866299
  56.2316603   4.9851249  62.5913232  12.4116021  58.7657033  65.6224652
  12.9765642  59.5132606  65.8175214  11.6415187  59.2201669  65.2140649
  40.3906916  54.7639998  69.7060846  39.7185980  54.6765664  69.0295662
  40.7301321  55.6607690  69.5998131  36.7967650  72.7582849  61.4118053
  35.8878537  72.7821974  61.6698725  37.1802534  73.5239985  61.8324392
  31.8925192  64.3418211  50.0710780  32.3814390  65.1441329  50.0302693
  32.5018052  63.6706986  50.3840181  17.8019025  47.9742068  70.4529485
  18.7838235  47.9169063  70.4726421  17.6825430  48.8834408  70.1261371
  46.8043895  64.5354823  56.1938709  46.5495899  63.6506740  55.7926016
  46.6845926  64.3295071  57.1456829  21.2286456  30.4316821   4.7489489
  21.5801175  31.1520304   5.2289462  21.2357513  29.6883296   5.3353085
  38.8171881  77.7676058  54.6830219  38.2858189  78.0438496  53.9308750
  39.6124843  78.2560626  54.5857601  36.1520090  61.3865658  65.1315418
  36.6777819  61.2647900  64.3633966  36.8338577  61.3537914  65.8475270
  46.4984986  75.2076828  59.1493539  46.2333528  75.2950297  60.1160149
  47.0203403  74.4017325  59.2084888  46.4908112  75.7497701  49.6005288
  45.7566648  75.7151606  50.3151249  46.9331709  76.5506860  49.9038185
  39.6696606  72.7272088  65.4521894  40.3092599  72.0598042  65.0308523
  39.0228904  72.0714889  65.7547706  47.0660379  65.3080972  47.5821975
  47.5016716  65.3256560  46.7400953  47.7668052  65.2413921  48.2483350
  48.2783831  63.4558662  60.7732892  49.2170777  63.2442969  60.6194523
  48.3420369  63.5852773  61.7632335  48.2477707  60.0945019  63.1966029
  48.9947358  59.5593565  62.8966674  48.5823073  60.3910866  64.0677777
  55.9516352  64.9043445  53.8258162  55.0083366  65.1391787  53.9050824
  55.9567419  63.9535567  54.0601769  23.4751128  35.2452115   2.9158719
  24.2097277  35.0976398   3.6040519  24.0003502  35.4046241   2.1127450
  16.3529455  41.4522356   2.0655501  17.2581710  41.1306475   1.8869748
  16.4727663  42.3488840   2.3704376  59.0596399  56.9659966  67.6509773
  59.4096391  57.0562360  66.7475996  59.4363369  57.8245798  68.0486989
  42.6042615  61.6743596  50.8191259  43.2975683  61.2535155  50.2729739
  42.3615366  62.4383645  50.2602165  33.7674026  58.9852375  67.8552056
  33.5772789  58.3211564  67.1539302  34.6126237  58.6947935  68.1321700
  22.2383957  22.6747674  10.1285676  23.0247508  22.4159177   9.6961274
  22.0336036  21.8234616  10.6300479  48.2131041  67.2645845  53.5291491
  48.8220880  67.0003373  54.2076714  48.7438057  67.0881794  52.7085316
  37.0509001  69.3246810  64.6139338  36.3513772  69.8176424  64.0243940
  36.4135500  68.6523312  64.9447896  43.0605675  73.4897174  64.1673962
  43.5910679  72.7004087  64.0670674  43.3240095  73.8364009  65.0453049
  26.5170352  21.3195878  14.4204312  25.7353269  20.8163042  14.3436128
  26.4394439  22.0369532  13.7841189  36.2416453  67.6806187  53.2948644
  35.3451131  67.3054534  53.3884304  36.2726671  68.0527173  54.1757378
  36.5221000  58.4292690  68.6012651  36.6526993  59.2493980  69.0993589
  37.4333991  58.3012569  68.2440236  34.3894423  32.3794897   4.9302478
  34.9955150  31.5679238   4.8143682  34.0724750  32.1331332   5.8168265
  41.2611573  64.4872217  63.4303041  40.3357910  64.3300300  63.8077812
  41.7383922  63.7611099  63.9582887  43.1104231  68.7105231  65.6602015
  43.1526304  68.1625053  64.8547837  42.9158303  68.0577540  66.3565396
  40.6957758  59.7342891  70.3931364  41.4044626  60.0784676  70.9373081
  40.2795970  60.5762252  70.0989810  12.3419515  35.2074605  12.3546201
  11.9223463  36.0005246  11.8694185  12.1011975  34.4954465  11.7060338
  44.5586751  70.8194720  64.7360589  45.3112586  70.8335549  65.3699706
  43.9510854  70.2055998  65.2110455  37.5822886  62.3800485  62.8220158
  37.0445294  62.7171715  62.0459785  37.9556853  63.2694881  63.0660346
  32.4734458  63.5384402  65.8495722  32.9319150  62.8531111  66.4302516
  33.1377355  63.6158987  65.1467335  14.1246189  45.1026872   4.9342194
  13.9195718  44.6341830   5.7543797  13.1752272  45.3980732   4.7326910
  33.4995515  65.7087591  57.5371478  32.8132837  64.9950353  57.3618479
  34.2924640  65.2818999  57.1768045  40.9484571  74.7893288  66.6928943
  40.4892357  74.2524700  66.0609493  40.8874210  75.6954846  66.2910797
  45.7872373  64.2357790  69.3147851  45.3067724  64.7050531  69.9573161
  45.2926314  63.3883663  69.2757301  54.2679909  47.7146413  63.6718099
  54.2602045  48.5019789  63.0801710  54.2072718  47.0043099  63.0096807
  34.8932740  78.5263583  65.1288524  35.7849523  78.0444395  65.0287317
  34.6034920  78.4861087  64.1850476  40.6254531  72.5066082  60.4834452
  40.2960671  71.6854351  60.9888022  40.4071213  72.2593884  59.6079166
  43.3097551  57.1742178  56.1664223  44.0725053  57.6088062  55.7162403
  42.8251371  58.0226490  56.4611824  53.9417346  61.3234224  58.4801055
  54.5868074  60.9443696  57.8627711  53.8424357  60.5410541  59.1160489
  49.1510700  57.7378891  69.6941090  49.3886198  56.8706220  69.3341378
  48.2601755  57.6065310  70.0509822  61.9093029  76.9274499  45.3274081
  61.3314890  77.4870177  44.8026023  61.9789041  76.1169590  44.7411665
  52.8671788  65.6477072  60.7117513  52.8755766  64.6855824  60.4429716
  53.4797022  65.5874557  61.4794121  41.6699899  57.9390711  65.4803834
  41.7602339  57.7632644  66.3952000  42.5272303  57.5818485  65.1556701
  48.5491211  73.7299346  62.8771923  48.1096956  72.9119417  62.4992454
  48.1727483  73.7639782  63.7740049  39.9368826  57.1918590  56.5227289
  40.7054703  57.6987374  56.7999058  39.2868022  57.4739122  57.1373224
  41.0872711  61.2284659  54.5448668  41.1456533  61.7745344  55.3952863
  41.8471706  60.6759112  54.7186431  23.2331421  62.7729701  50.7860056
  22.3209376  63.1669075  50.5360637  23.2162788  62.0124276  50.1305682
  35.9404249  57.5108039  54.4259702  36.8224049  57.9091088  54.5984321
  36.1764342  57.3492533  53.4116680  38.4874739  74.3134828  41.4794429
  39.4494744  74.4646943  41.6625894  38.4427239  73.3572453  41.4797213
  45.0683476  70.6509005  57.0002071  45.9330262  70.2053799  56.8501509
  44.7424869  70.1235870  57.7436110  47.5491438  71.1459879  62.6451263
  47.0489559  70.5534668  63.2570076  46.7515550  71.6835742  62.2427761
  35.6633103  79.0837137  51.0821256  34.8147738  79.1008029  51.5095373
  35.8122169  78.0747158  51.1472794  40.3345939  78.1152979  49.5225085
  40.4179842  78.6017376  50.3292275  40.8669500  78.7328431  48.9266921
  53.3559532  63.5830196  56.6525016  53.2721156  64.3661617  57.2815601
  53.6460645  62.8830838  57.2699985  39.4203543  69.9519594  53.9728641
  40.2094229  69.4012284  53.9921794  38.7170334  69.2367241  53.8600826
  51.6730324  70.4666931  58.3369161  51.6568902  69.5027888  58.2879946
  51.6058264  70.7157459  57.3790793  49.6844641  64.4844548  63.0761763
  50.1562766  64.9092303  62.4354191  49.4995178  65.1585563  63.7765494
  33.3614227  73.5123883  53.8994570  34.0101652  72.8946229  54.3259997
  32.6728196  72.8489911  53.6441689  40.8987922  74.2939454  62.5929014
  40.8667289  73.4955628  61.9568231  41.4265208  73.9218986  63.2964751
  51.7050179  79.8042751  57.1902060  52.4134292  80.4554278  57.1426646
  52.1126563  78.9865396  57.1030720  42.1461251  67.8021530  61.2223638
  42.5793788  68.6281768  61.3619828  42.0896408  67.3978480  62.1431359
  30.1847364  61.4169639  56.8377070  29.2498360  61.6545153  57.1696542
  29.8788804  61.0792153  55.9509197  47.6521516  78.0524497  60.1279741
  47.9368818  77.9831149  59.1992821  48.1322036  77.3336241  60.5670679
  44.4498659  61.7722215  69.4761525  44.5165575  60.8240286  69.1715005
  44.4806573  61.5669582  70.4402244  41.6802790  62.3236160  65.1307580
  42.5272272  61.9520539  64.7743175  41.1152332  61.4758113  65.0742021
  50.6645207  59.9478056  69.4898599  49.9466783  60.6088832  69.7419843
  50.1353877  59.1189062  69.5196468  50.0204573  70.1780864  62.3491104
  49.1143770  70.5204076  62.4948566  49.8536451  69.3289946  61.9456988
  37.3065417  65.8410803  68.1085646  36.6547315  66.3772717  68.5564447
  37.0797077  64.9383767  68.2703982  27.5642196  25.7340140  11.3021677
  27.4598103  26.7153379  11.3655656  27.8710939  25.5975692  12.2276251
  48.5985015  71.4522297  57.5796323  48.5348294  70.5002129  57.3978662
  48.6602642  71.8267876  56.7035594  40.9603193  77.2745227  65.8956465
  41.3303493  77.9665055  66.4486191  40.9332794  77.6815359  65.0194451
  13.4554098  36.0663915   4.7402261  12.6876178  35.8425599   4.1944851
  13.9607381  36.6707858   4.1378560  49.1217439  71.9072681  46.7066468
  48.3530272  71.8945236  46.1555146  49.7002372  72.5098348  46.1905614
  32.8690450  65.7481899  67.7117811  32.6988471  65.0394665  67.0243421
  33.7597803  65.4966976  67.9943629  39.8956683  63.2317705  73.9478808
  40.5984997  63.3828331  73.2996526  39.1295136  63.7050323  73.5569227
  57.5095589  63.2547561  48.1994905  56.6885094  62.6949067  48.2022435
  58.0816069  62.7121324  47.6172295  32.0044012  78.3768298  67.4447699
  31.8610922  79.3205777  67.4912022  31.0831513  78.0532032  67.3798810
  40.1908419  64.3776953  66.2801422  40.4633966  64.0391973  67.1668898
  40.5996940  63.6887491  65.7149727  39.3119687  66.8641645  66.3929034
  40.0376499  66.2789253  66.5692242  38.6122929  66.4802580  66.9986102
  56.0044105  47.4790248  60.2898939  56.9320560  47.1185467  60.4952816
  55.9827000  48.2357068  60.9070982  59.5256459  59.2767246  48.7361720
  60.2786906  58.5949125  48.8603820  58.7921501  58.6249297  49.0101317
  29.9338213  73.6166102  68.8500950  29.3427619  73.9384283  68.1335611
  30.8062924  73.7204029  68.4157219  38.3979013  64.7013647  64.0023629
  37.4551543  64.7939158  64.3083635  38.8560467  64.9934380  64.8496145
  52.5654890  65.9395674  58.1102926  52.8136228  65.9831020  59.0517371
  53.2558161  66.5837403  57.7710368  25.9245559  38.7042104   0.7887047
  25.0819632  38.3238295   0.4260597  25.8572338  38.4527886   1.7213036
  48.3890180  59.2456601  66.8358935  48.4454100  59.0763931  67.7778429
  49.2165593  58.7502239  66.5175850  47.3272378  69.1849434  56.2539437
  48.0451144  69.0922135  55.5625912  47.5638939  68.4953427  56.9255428
  26.4899399  41.9538005   1.8966167  26.3240871  41.7954899   0.9742890
  26.6266481  41.0668224   2.2527350  41.9061344  76.1369585  60.0437755
  40.8989741  76.0726126  59.8961888  42.2321983  75.5726113  59.2808315
  38.2745578  63.2905346  54.0010013  37.4302940  63.6489717  53.7257464
  38.6870248  64.0575326  54.5191545  34.6769899  62.2475695  56.5597015
  34.6501896  61.9593639  57.5043424  35.2437423  63.0280396  56.6589379
  46.1982967  58.2175691  62.3913710  46.7228603  58.9920382  62.4566494
  46.5148728  57.6726662  63.1264411  14.7684596  21.1512513  14.1706010
  15.0968601  20.2779121  14.4429498  15.0384840  21.7064160  14.9184499
  34.4949422  61.7792008  53.2695384  34.5568964  62.5913705  53.7931326
  34.2670747  61.1175154  53.9588514  42.7646243  66.7284926  63.7848774
  43.6265027  66.2738428  63.8962228  42.1755380  65.9929293  63.5653891
  45.0978564  67.6236189  68.8987510  45.9994101  67.7826941  69.1851338
  44.7347600  67.2706336  69.7689212  39.0157119  65.8199779  55.4353906
  39.7766477  66.2494295  55.9800982  38.7227032  65.1795555  56.2002454
  38.7011795  64.8790197  61.3278827  38.6059993  64.9731087  62.2549537
  39.1281532  65.7779385  61.0743414  34.1160517  59.7971867  55.1589801
  34.6806376  59.0507839  54.9637361  34.6346864  60.2255416  55.8766389
  44.1014558  61.7567630  57.6647727  43.8279646  62.7125185  57.5535480
  45.0370830  61.9626363  57.9609633  44.5402065  61.9674542  72.3912437
  44.8389685  61.1617205  72.8451456  45.2204576  62.5950590  72.6904208
  40.8702035  67.0628708  56.8812740  41.5604118  66.8979064  57.6172156
  40.5104592  67.9123598  57.2787014  46.7504376  57.8253031  65.1398168
  47.6481055  57.8863413  65.4989888  46.3332256  58.5609228  65.7026259
  44.0066803  64.6941557  57.5965911  43.4376036  65.4220910  57.9205784
  44.8476368  64.8778258  58.0339167  52.8186999  61.5206619  68.7391935
  52.3568402  60.7113073  69.0632500  52.0137024  61.9426407  68.2464458
  55.2961704  55.9481599  62.4433857  55.6562739  56.8567906  62.5077127
  54.8931949  55.9653771  61.5499392  50.1041934  80.7575694  59.4224570
  49.3047825  80.8592350  58.8786937  50.7277258  80.4503600  58.7243030
  36.4239603  57.0080924  70.8678171  36.4657768  57.3322295  69.9415993
  37.2956382  57.3847326  71.2192893  41.0072633  63.3358750  56.4040985
  41.7889064  63.8385883  56.0460499  40.9402069  63.6840151  57.3209714
  49.7149838  54.7707344  54.8519882  50.3987728  54.0455856  54.9682141
  49.7598757  54.9841826  53.9287027  52.0962432  73.8704747  49.6164938
  51.4774871  74.4351039  50.1669322  51.4597351  73.2487149  49.2329710
  26.1943943  37.0218761   3.2735187  25.8260044  36.3677835   3.8975607
  26.6702226  36.4810979   2.6120114  40.3360839  63.6326201  59.3853360
  39.6200289  63.8613591  60.0030770  41.0799657  63.5321672  60.0334908
  49.9097763  67.6007192  60.9545589  49.9468170  67.5198077  59.9661736
  50.4633181  66.8388668  61.1793469  19.6982370  43.1258500  -2.6624800
  20.6164632  43.0821258  -3.0641569  19.7076119  42.2071509  -2.2441445
  68.9084424   8.4388997  61.5242211  68.5595632   7.7789148  62.1498532
  68.0540079   8.8401973  61.2492080  29.2372219  66.9557083  60.8276065
  28.6852405  67.5607541  61.2896125  28.7218877  66.1433826  60.7586849
  38.5012772  61.3010293  56.0918347  39.2610683  61.8623566  55.9347092
  37.9476103  61.5468395  55.3114104  33.1379186  64.7194085  72.5160370
  33.4714052  64.4719424  73.4230084  33.6281276  65.5424374  72.3522364
  38.1238897  67.6192009  70.7119346  37.1516285  67.4362886  70.3863100
  38.0634529  68.5581484  70.4295220  39.8618660  59.2984947  60.5588917
  40.4795425  59.8822714  60.1016393  39.3131720  59.0201262  59.7707989
  49.8296975  53.1944651  64.8649345  50.4271439  53.9553649  64.8510921
  50.4945021  52.4770679  64.7786800  51.8418890  79.7803838  50.8987421
  52.5707248  79.1642845  50.9450253  52.2961263  80.5530277  50.4545694
  22.2177923  31.9747459   6.7181597  21.6182139  32.0601135   7.5581859
  22.9907494  31.6453233   7.2717030  40.2419450  60.1816656  64.3689863
  40.1300756  60.1913020  63.4271749  40.6473220  59.2452740  64.4382257
  25.3743123  34.8985845   0.4006883  24.9516109  35.3291130  -0.4087364
  26.1283872  35.5111696   0.5275284  58.7854638  77.7910886  49.6367729
  59.5925276  78.1605909  49.1538296  58.8928318  76.8559279  49.5476464
  45.1926162  63.6329251  49.4695008  45.8761343  63.6330323  48.7928047
  44.8320272  62.7503241  49.2947575  50.1689939  44.2396458  66.9266058
  50.8997584  43.6286690  66.7292209  49.4602274  43.5601811  67.0567750
  54.4147201  66.9160197  51.0205725  55.3672651  66.8009340  51.0202519
  54.2171578  67.4258118  51.7904769  43.3949164  60.6049545  63.2260556
  44.3153245  60.3762313  63.2176386  43.1131336  60.3206506  62.2899245
  34.0570979  68.7684411  65.3360250  33.8954856  67.9428260  64.8870070
  34.1252227  69.4015928  64.5782610  49.9990670  55.7888585  61.5154761
  50.3757801  55.4915359  60.5907651  49.0800363  55.5626748  61.2961545
  44.2105468  52.3032180  59.0317521  43.4217135  51.6745657  58.8732541
  44.9234039  51.6807664  58.8682600  42.4008985  59.4726031  56.9478196
  41.8001268  60.0726429  57.5274393  43.1895968  60.1004147  56.9316705
  43.0118873  67.1512547  58.7685413  42.8018612  67.0395729  59.7149142
  43.5432871  67.9665691  58.8353892  52.4947422  58.5149045  52.2921427
  51.5636170  58.8201271  52.2560558  52.9375328  59.3557621  52.5344095
  46.3471357  62.4224168  54.6826819  45.5740440  61.8453884  54.6514215
  46.5261149  62.5200762  53.7183683   8.8783318  46.0081523   5.9393042
   9.3019880  46.9046508   5.9016640   8.4904814  46.0321570   6.8528042
  17.3837711  32.0458254   9.2824328  17.4053557  31.2707955   9.8367223
  17.9794673  32.6908243   9.6283203  53.7219749  71.8683011  55.5533654
  52.9764842  72.3480688  55.1391935  53.6574985  71.0273457  55.0248193
  58.0740017  50.5612630  58.3251882  57.1161771  50.4978637  58.4278513
  58.4018577  50.4106414  59.2702808  63.2850802  64.0067065  60.3242078
  63.8931974  64.6222086  60.7318358  62.9888740  64.5574410  59.5186719
  33.7598813  70.2562915  57.8812481  34.2998473  70.9510982  57.5957467
  33.8259247  69.5906566  57.2010893  40.7376353  67.5799607  49.9821090
  40.0756474  66.9902143  50.4189516  41.5564267  67.0351583  50.2381290
  44.3528520  68.0187177  53.0089748  44.7141194  67.1482814  53.2277034
  45.1456278  68.5768873  52.7729289  41.8661901  64.0531951  52.2036108
  42.1339909  64.9492255  51.7843418  40.8895517  64.0902583  51.9642944
  55.4852785  68.5751806  44.2551293  56.4629006  68.3813565  44.1933394
  55.2276822  67.6948828  44.6790600  42.4916735  74.8819362  57.8485317
  43.0480598  74.3004248  57.3609879  41.6834663  74.9708912  57.2749889
  40.4306903  79.7004286  51.6136544  40.0947182  80.6258403  51.8037331
  39.8247573  79.1799443  52.1078210  37.6857242  70.9993557  55.8364131
  38.5618778  70.7943333  55.3962842  37.2734721  70.1005499  55.6202521
  45.8908469  60.4324185  66.3254780  46.0262231  61.3740987  66.1772549
  46.7652501  60.1458751  66.6457837   3.2907665  12.9742725  52.9867371
   4.0648805  13.6216919  53.0641839   2.6702660  13.4506654  53.6040070
   9.8158850   8.7076143  51.8455186   9.7883768   8.9571060  50.8980605
  10.2573333   7.8305358  51.7921015  45.2167234  78.5300023  59.3382356
  44.7279906  77.6848422  59.3520253  46.1220222  78.2442391  59.6622116
  49.3870421  73.4271838  54.7065719  48.4307832  73.3244350  54.6388905
  49.4909210  74.3839314  54.8935375   2.6962387  12.8051907  45.0290475
   3.4396364  13.1507045  45.6241898   1.9776654  12.8554857  45.6819211
  68.2102133  11.7081790  50.9005171  67.3576594  12.0929421  51.2131868
  68.1832774  10.8240641  51.3050682  47.8426340  75.8381032  56.6200858
  47.4273156  75.6549226  57.5046124  47.1099923  76.3061291  56.1822561
  62.7310801   7.9685074  67.5959776  62.3747758   8.8403759  67.1884446
  61.8744413   7.5212838  67.5759502  73.4687140  10.9794739  50.2560295
  72.7946540  10.7323409  49.5523818  74.2318799  10.4893526  49.9084410
  33.3112161  48.6489599  -4.9905288  33.3687292  49.5924327  -5.2474862
  32.5962197  48.3436104  -5.6499737  17.2219745  34.6765414   5.6599732
  16.3728063  34.4425127   5.2538723  17.4817136  33.7609701   5.9857762
  44.2459136  81.1231363  53.2077374  43.6953197  81.9023849  53.5666189
  45.1237729  81.5603407  53.3501732   6.7331616  11.3813680  54.8167997
   7.3916059  11.9515728  55.2419167   7.2485589  10.6118035  54.5085860
  35.3486357  41.2050296  -7.4841454  35.0871431  42.1221532  -7.1533926
  34.5442401  40.7536247  -7.1580286  32.1189156  38.0676109   0.2064544
  31.6747357  37.4824508  -0.4429720  31.2797892  38.6126991   0.4262031
  51.8801444  74.7431057  58.5926657  51.3903036  73.9192101  58.9129595
  51.8266847  75.2984683  59.4030424   8.6705071  12.5636981  56.2774281
   9.5286854  12.1280455  56.2314714   8.4487312  12.5798315  57.2279212
  55.5644548  78.7808147  43.5010152  55.0793137  78.4292956  42.7325370
  54.8390749  78.9302778  44.1444727  18.1704022   4.4642693  54.7250591
  17.5898730   3.9005334  55.2767060  18.6813314   3.7592574  54.1925098
  41.3222939  41.7752604  -2.2418590  40.3471823  41.6439566  -2.3207687
  41.3623323  42.0703759  -1.2813656  19.3960267  17.5641284  39.0642511
  20.3835789  17.5547434  39.2443104  19.1183604  17.1984348  39.9397945
  66.5031164  74.5527134  50.1429789  66.2834964  75.2791699  50.7141498
  67.0635292  73.9721999  50.7226975  27.0502082  44.1525668  -3.8412882
  27.6520314  44.9405600  -4.0474724  26.2059528  44.5823389  -3.7996518
  70.4488544  67.2284710  46.5502327  71.3254367  67.6781899  46.6656513
  70.4443615  67.3446076  45.5136162  23.4052006  14.9990937  52.3839861
  23.7058817  14.1101145  52.1573542  22.5765251  14.8356788  52.8032922
  67.3274670  59.7812716  45.6826581  67.3930256  60.5844787  45.1350718
  67.7268599  60.0799256  46.5161646  70.2142908  74.1113674  54.6302940
  69.6792916  73.3206024  54.6296540  70.1703373  74.3367056  55.5933223
  18.2725549  14.7179592  54.8866564  18.2185362  14.8603883  55.7960545
  17.4986794  14.1116878  54.7085832  60.9789953  67.4733496  54.9196238
  61.1717637  66.8318032  54.2022798  61.4285247  68.2651095  54.5258804
  17.7021992   2.9336562  41.6838106  17.0389135   2.8875266  40.9606839
  18.4671446   3.2466769  41.1129683   2.5453010  66.0219596  54.1356332
   1.6887052  65.9411649  54.5275019   2.6161161  65.1353061  53.7201424
  11.2346674  11.6247621  48.6819285  11.6313031  10.7155568  48.7135185
  11.1377474  11.7398109  47.6747930  41.4072721  35.5703101  -2.1309776
  42.0839853  35.0299233  -1.7561132  40.6736032  35.3973937  -1.4789327
  23.4074567  21.4740473  45.3234297  23.9957518  20.6879103  45.5038100
  22.5952592  21.0336144  45.7204539  22.1199534   0.3499624  39.7187773
  22.0048603   1.3268394  39.7441475  21.1688209   0.0950951  39.7526215
  22.3829398   1.5776375  58.2604335  23.0114236   2.1783532  57.8140197
  21.5048621   1.9660622  57.9048461  15.4172742   1.7752620  54.2222224
  15.9598751   1.9446402  55.0153004  14.5020723   2.0733534  54.5027300
  20.8890473  19.0155984  60.2350326  21.5791299  19.6643989  60.1577441
  21.2107044  18.4692926  60.9703893  28.1505069   6.6854349  54.1121996
  28.6696273   6.5794159  54.8882968  28.5645874   6.1109223  53.4657493
  34.8678955  -4.1999746  51.3056218  35.4408472  -3.9866933  52.0962028
  34.4974217  -3.2799290  51.1510578  18.7549290   8.4648094  39.8325240
  19.3946392   7.7357770  39.6456748  18.9242462   8.5673936  40.7801410
  19.0719509   2.1565086  53.9764113  19.4611828   1.4669327  54.5697378
  18.4539714   1.6254071  53.4270598  20.2652400  11.4161545  53.6620813
  20.1380521  11.8293142  52.8662760  19.3728209  11.1709232  54.0021469
  13.8818422  16.5133961  61.1183963  13.0467075  16.2453422  61.5765729
  14.4113480  16.8358325  61.8774363  54.9447981  66.2463338  45.7043841
  55.7668655  65.8821425  45.9768195  54.2925156  65.5238206  45.6442152
  72.4634877  60.7185102  57.3976537  72.1279789  59.8268580  57.1362914
  73.0862869  60.8269378  56.6064078  64.4718357  72.5767165  53.0315852
  63.9896520  71.7869913  52.6887810  64.5833971  72.3949647  53.9409832
  65.3934648  67.5294340  52.6604819  64.5587520  67.6961706  53.1618081
  65.9713800  68.1503648  53.1448979  15.4331315  17.3216912  58.9189853
  16.2683480  17.4129213  59.4684164  14.8481796  16.8774257  59.5910090
  24.1431853  12.6001245  52.0798196  25.0781839  12.6120193  52.4520075
  23.7181526  11.9600976  52.6814609  58.6726601  78.1460494  30.4230427
  58.7857020  79.0718709  30.1496099  59.5845583  77.8010620  30.3175484
  23.8551991  17.7664571  49.1213070  23.5886770  18.7544671  48.9580240
  23.7779259  17.8523152  50.1030498  57.2412630  61.9061169  34.3396231
  57.1604345  62.8817879  34.2450380  56.4188525  61.6066425  33.8786111
  15.5547882   4.7814531  53.0694443  15.7153740   3.9244899  53.4944622
  15.9045252   5.4329782  53.6910442  21.7084767  10.4032092  40.9398829
  21.9164684  10.2206751  39.9913220  22.4604095  10.7942604  41.2663704
  62.3863028  75.7127008  56.0683112  61.8134459  76.0593624  55.3534273
  61.9862534  74.8443823  56.2416148  65.1489712  68.4013936  46.0681513
  65.6652952  69.1126456  45.6203056  65.5810545  67.6039553  45.7938306
  62.9384285  76.6053671  50.4346297  63.1804926  76.0521585  49.6370574
  63.6736216  76.5040126  51.0134934  31.8905971  12.3891517  51.4040342
  32.5943965  11.9001151  50.9092951  31.1337038  12.1986579  50.7637349
  30.7440786  19.8050523  40.7574721  31.2652255  20.5516374  40.9106427
  30.2687899  19.6848314  41.6546786  53.7461777  81.9577784  50.1020901
  54.2234468  82.5165488  49.4408653  54.5182744  81.5930208  50.6138806
  18.2178120  10.9615801  61.4800815  18.8370183  10.1924105  61.4940067
  18.4647535  11.3679375  62.3768963  24.1532316  15.9546184  44.0650372
  25.0390824  15.6757540  44.3170210  23.6804854  15.8685243  44.9665879
  23.6590885   2.3135393  52.2684171  24.5606648   2.0596988  52.1989644
  23.3023526   1.8397147  53.0523515  12.2249379  19.4040395  44.5533810
  12.5094783  19.9645505  43.8053497  11.3705291  19.8478801  44.8047044
  17.9738479  18.9440599  50.8326348  17.7372576  18.0305284  50.4875765
  17.5473883  19.4698690  50.1916324  60.6615260  77.0695504  54.4007062
  61.0728302  77.5261690  53.6731214  59.7538875  76.8759453  54.1464369
  20.0606828   2.4630370  37.2390687  20.5188329   2.8994656  37.9653333
  19.4964464   1.8438484  37.7744662  23.1337273  10.2654061  62.1598308
  22.9897381   9.5012732  62.7722953  23.7127729   9.7818539  61.5150259
   9.9683091  31.4459131  47.9053466  10.7451372  31.1598929  47.3974288
   9.8322724  30.7124643  48.5411861  38.0840017  53.2000877   0.5038406
  37.2077701  53.6834866   0.4841497  37.7053557  52.3538948   0.9056028
   6.1340887  16.9189122  48.6328479   6.5477822  17.4687159  49.3205082
   6.0112219  17.5789220  47.9501133  23.2307299  20.2874929  48.8340538
  23.2805312  20.7620055  49.6818323  22.6493811  20.9487423  48.3537906
  25.8031323   1.0685203  55.9783874  26.0240921   0.1736993  56.2995238
  25.8620921   1.5210414  56.8688780  11.5852291  21.5736719  47.4786803
  12.4602205  21.2025090  47.1915287  11.0485444  21.4022861  46.6947815
  58.6637106  74.9667242  49.2252583  58.8349197  75.0319314  50.1766777
  59.1561959  74.1502985  49.0069373  73.6588722  68.1181955  55.0259889
  72.9915033  67.4599822  54.6041310  73.4459495  67.9460101  55.9746667
   8.0317410  13.4377226  58.6922054   8.6033395  13.8367473  59.4046550
   7.7030656  14.2763626  58.2838763  15.5888252  10.1538005  32.8282794
  15.6191840   9.1855229  32.7989122  16.3444695  10.3912184  32.2729790
  24.2203866  -2.3315045  52.7045707  23.9203759  -2.2837433  51.7922318
  23.4104821  -2.2255179  53.2073773   8.0838951  12.2548584  43.5851866
   7.3875158  12.7587028  44.0887603   7.6622352  12.1010962  42.7199330
  18.1232278  20.0205068  53.4409417  17.5626290  20.7678230  53.1873751
  18.1402461  19.5277287  52.5957852  59.5475172  80.7279374  49.7242693
  58.6291987  80.7874761  49.4179029  59.9185191  81.6135797  49.5521398
   3.9639995  19.0310326  43.4500277   4.2791961  18.2329806  43.9207672
   4.4639981  19.7363007  43.9247350  44.2162933  40.7262344  -5.2591943
  43.4998820  40.4855982  -5.8384594  43.9697129  40.3657381  -4.3766119
  28.9251045  16.5900100  59.1755998  29.1938349  17.1259958  60.0005112
  28.1074213  16.1744035  59.5625628  16.3052356   6.4161557  50.1014269
  15.9823545   6.7512848  50.9602230  16.7149679   5.5653003  50.4008540
   4.0796606  21.4646106  35.1861183   3.3756111  21.7839737  34.5287902
   3.9558268  20.5652137  35.2157132  29.1461115  24.5254697  60.0451807
  29.4730440  25.3473510  59.6890668  28.2982923  24.4019421  59.6019082
  77.2779716  68.3620519  51.4291213  76.5982475  68.9472145  51.0824386
  77.6460951  68.8411979  52.1448947  23.7754882   9.3809622  45.7013549
  23.3256871   8.7881462  45.0606573  23.1350963   9.4986807  46.3753389
  12.9514608   6.5669823  53.7794185  12.5399801   6.4311057  52.8958803
  13.8086654   6.1945020  53.7541224  71.4711058  73.3171801  46.6860129
  71.6494794  72.9296869  47.5512203  70.8101872  74.0471579  46.9577502
  21.7081821   5.3039524  58.3182391  22.4930505   4.8616569  57.8928757
  21.2651679   5.6570893  57.5629884  16.8647978  13.9637072  47.7586691
  15.9994706  13.6606881  48.0683282  17.4558448  13.7279438  48.4926728
   5.1401662   9.0713935  50.7937926   5.4171280   8.6431466  51.6525954
   4.4436424   9.6273045  51.1684742  14.3044408  12.8110794  47.3765226
  14.3976443  11.8658437  47.6061194  13.3352772  12.8137747  47.1945768
  26.9169250  15.5106137  60.4112603  26.8695308  14.5972743  60.8466815
  26.1407465  15.2975998  59.7631994  37.8319724  -1.2560808  54.1547611
  38.3614927  -0.5736568  54.6014760  38.4575878  -1.6844896  53.5062400
  20.4739328  14.3369500  40.2103980  20.4100198  15.1397170  39.7116073
  20.8198916  13.7381185  39.4047997   1.3750295  58.4917483  58.7048843
   1.8796874  59.3116965  58.8845255   1.9938859  57.8393040  59.0930285
  35.0360919  14.4882034  62.9484088  35.3016350  15.3883003  62.6896435
  35.0012871  14.5611239  63.9029061  66.6951570  68.9953785  54.5603805
  67.5653591  68.4947937  54.6071707  66.9512565  69.7706134  55.0848769
  57.9514882  77.6296031  37.2009309  58.5991535  77.0881242  37.7174565
  58.4932244  77.7152997  36.4041463  20.5596116   8.3074252  56.0327153
  20.3599880   7.3368119  55.9737416  19.7276829   8.6412263  56.3881326
  15.2571593  11.5496880  43.2398139  15.5834225  12.2463759  42.6582528
  15.8235510  11.6710743  43.9833258  12.8144671  10.7421830  34.0430711
  13.1403394  10.3196879  34.8290544  13.6657670  10.8192810  33.4890118
  73.6270479  66.6340106  48.8134704  73.9252392  65.7376308  48.5658092
  73.4821562  66.9971530  47.9111305  69.7308310  71.2328315  45.3139294
  69.4537637  70.8315528  46.1763974  70.5810011  71.6586271  45.6358580
  36.8984091  -3.1578905  49.3377640  36.5124192  -3.7374660  50.0755341
  37.8342707  -3.4313062  49.4234364  16.0916204  69.4291800  51.8818248
  16.7124243  69.1496224  52.5819061  16.4710977  68.9826459  51.1060275
  16.7651662   0.2909280  47.6984156  17.0426586  -0.0557266  48.6046295
  16.8250650   1.2683918  47.9388432  67.5253061  73.7667526  52.5387845
  67.7535996  73.5850037  53.4687955  66.5140082  73.7904918  52.5779939
   0.0392986  13.9803176  54.2592382  -0.1957310  13.0187392  54.2134087
   0.5798109  14.0203983  55.0812460  19.9390069   5.1477632  44.2745178
  20.1418931   4.1995783  44.1207738  19.7511071   5.0908579  45.2493042
   7.9888165  10.2780481  47.1770603   7.4478948   9.5780980  46.7967701
   8.8687250  10.0403370  46.7458948  19.2007626   4.5908422  48.1049841
  18.3513258   4.2121293  47.9063898  19.4832520   3.9501677  48.8365311
  22.8377275  18.4236716  51.6191164  23.3569467  18.6023240  52.4176955
  22.5572790  19.3233116  51.3757431  22.2749906   8.6367443  43.5470794
  21.8041555   9.5080988  43.5822576  21.5955595   8.0681700  43.0429092
  17.0614371   6.5333279  35.8462545  16.1704140   6.7242404  35.5447296
  17.0841596   5.5617162  35.8664006  68.1826490  70.5321967  43.0757537
  68.5308522  71.0487699  42.3144263  68.8092229  70.7609060  43.8078310
  59.4204568  80.4532037  56.4736598  59.8485958  81.1983959  56.0442693
  58.8688369  80.0900052  55.7116003  11.6725231  20.3298609  56.5758757
  12.4265120  20.0473892  57.1656709  11.1976237  19.5559726  56.3989606
  35.2799426   9.0653200  52.2795543  35.5032425   8.0860700  52.0778726
  34.2979554   8.9550004  52.1388548  37.5198962  22.9268398  48.2990449
  37.7487891  23.0692368  49.2365176  37.1217402  22.0556304  48.2814800
  12.1278478  23.4666567  49.2981843  11.9008094  22.9135763  48.4754690
  11.2939990  23.2976541  49.7598902  16.5346771   7.8145303  54.2153083
  17.2919667   7.1729332  54.1818356  15.8458612   7.2815162  54.6112937
  21.6884491  18.9596261  65.5020018  22.6099386  19.1488825  65.2144901
  21.3430444  19.8742626  65.4227013  28.8313876  17.5570509  47.5444996
  28.9144886  17.6236360  48.5463801  27.9072804  17.7712660  47.4405527
  21.9985101  23.8329012  31.1122433  22.6380034  23.2030856  30.6779109
  21.7497993  24.3248674  30.3409009  20.2345890  25.4743863  56.5648246
  20.8025926  26.0914102  56.0110435  20.8528360  24.7589817  56.6676453
  17.8008056  31.8070031  35.1466815  18.1140770  30.9609119  35.6577254
  17.0209695  32.0026749  35.6442512  33.3782785   8.4039658  34.5352380
  32.9145824   7.6773420  34.9268088  33.9876203   7.9893124  33.9176320
  19.4723761  21.8782949  54.7404269  18.9497923  21.0797182  54.5651366
  20.0906845  21.5681879  55.4237198  18.8450651  25.4033306  39.5715836
  18.8040689  26.3481342  39.3996459  19.4793290  25.1278817  38.8521119
  35.8001509  16.7288694  44.6020568  36.5519098  17.1270362  45.0372188
  35.5529717  15.9575527  45.1712378  26.2539385  13.2407935  35.7941177
  25.9694275  12.2994674  35.6385511  26.4972398  13.5153432  34.9169163
  19.7149456  13.0313272  49.5494225  18.8873030  12.8123228  50.0905250
  20.2748075  12.3108093  49.8788556  40.1317772  10.4373928  54.3536110
  39.3708773  10.2805237  53.7195054  39.8527920   9.7860765  55.0466842
  21.8592879  20.4172240  42.0880012  22.2071990  19.8241036  42.8157701
  22.3964460  20.0010700  41.3791411  10.7621611  15.9079171  51.5963699
  10.4575309  15.0484633  51.2120181  11.6244804  15.9382322  51.1019803
  39.0060420  20.4411716  49.8468846  39.0152629  19.5590720  49.3877241
  39.9766708  20.6008760  49.8736065  13.6619791  21.0723820  42.8147486
  14.0249586  21.7480333  42.2775532  14.4200109  20.9001470  43.4264056
  19.1456531   4.1807953  39.9321366  18.4417471   4.1793396  39.2284810
  19.5650062   5.0585925  39.7135133  26.3357617  28.7668464  53.1229047
  26.4197849  28.0437797  52.4545670  25.5278475  29.2510325  52.8559426
  30.7622937  26.4648360  66.9130239  30.6117882  26.6306458  67.8505695
  31.6193886  26.0717016  66.9124467  29.4762540  11.3398407  50.6258056
  29.1264078  10.9004520  51.4488715  29.2413344  10.5822173  50.0242074
  28.4824728  17.8790181  50.2277329  27.8231579  17.2312106  50.5911559
  29.2706368  17.6218521  50.8084942  23.0497323  -4.1413600  49.9710256
  23.8572005  -3.9474850  49.5136677  22.6547193  -3.1883739  49.8454923
  27.7844115  24.4104200  57.0494135  28.2288942  24.2446676  56.1521633
  27.7224662  25.3747594  56.8976732  68.6300783  71.9002593  54.3587760
  69.2374159  71.1965810  54.0286435  68.5854844  71.6076870  55.2818588
  31.8835484  21.2158603  62.2889677  31.2756199  20.4709894  62.4847039
  31.2890267  21.9167754  61.8716943  31.9585842  20.4644747  58.3085593
  31.6435426  21.1509492  58.9346625  31.5814062  19.6683085  58.7853376
  20.0172052  10.5944373  46.5561561  19.7582348  11.4037233  46.1026724
  20.8435818  10.9083776  46.9899468  22.3923060  24.0639850  44.5970828
  22.7187565  23.1207883  44.6516079  22.3234774  24.1899641  43.6649293
  14.8431319  26.3951770  57.5566446  13.9823102  25.9437929  57.6096202
  14.6692103  27.0066875  56.8532165  26.9392175  24.6265475  42.5340152
  26.4087810  24.2875348  43.2663006  27.8061947  24.7157492  43.0464355
  47.5579227  53.0042695   3.0909901  48.2607204  53.6345108   3.2081172
  47.2972169  53.2228858   2.1579495  14.4864948  15.3466281  48.2066310
  14.6011169  14.3828703  48.0544599  15.3434496  15.6481971  48.3544534
  22.9116202  16.7452887  46.8921417  22.6479636  15.8620399  47.2434249
  23.2927902  17.1292735  47.7368952  11.2454005  22.9520632  56.6049277
  10.2686696  23.0472262  56.4227048  11.3691551  22.0082723  56.3015382
  33.0047495  23.0699954  54.8973498  32.5739792  22.2268429  54.9759800
  32.9651218  23.2745508  53.9504989  25.9437046  27.4245233  42.1993386
  26.3701291  27.9518364  41.4751251  26.2240232  26.5289237  41.8606517
  14.6031817  22.6494303  56.3831982  15.1969074  22.0122796  56.8179689
  13.8059245  22.5459879  56.9495983  29.2662427  24.5620238  43.9821354
  29.9591321  23.8987822  44.0340134  29.7588793  25.4087800  44.1631573
  27.8223004  21.3827225  64.2669053  28.1435796  22.1496389  63.7308743
  27.6631558  21.8313716  65.1182754  16.1635226  21.5400388  51.8934058
  15.3485683  22.1285759  52.0858311  15.8255881  20.9313727  51.2627638
  22.5099853  12.5946006  63.2347159  23.1171796  11.8375438  62.9501785
  21.8128448  12.5440915  62.5749450   9.2354496  25.7368592  53.8115175
  10.0814172  25.3662060  54.1277442   8.7357063  25.9050647  54.6112089
  27.5852218  21.0333412  43.3383516  27.1469720  20.1658231  43.1895317
  28.5338973  20.8485391  43.1625034  28.0161817  15.1798963  55.4433530
  28.6905355  15.3524169  56.1266730  28.0852567  14.1869004  55.2860700
  27.3107972   3.9372693  54.6037517  28.2615868   3.8942864  54.5688409
  27.0809393   3.6137548  53.7299893  19.4672006  10.2047365  42.6271376
  19.4839517  10.9459768  41.9485564  20.1689303   9.6398503  42.2223495
  31.9633105  16.0163953  43.6575277  31.8601215  16.8566986  44.1037768
  32.2581248  16.3054120  42.7776688  31.3007245  22.6360956  44.2873063
  31.9099963  22.4800704  45.0828768  31.0429887  21.6577022  44.2139323
  32.2390870  22.5219518  52.0539953  31.4631673  22.7965620  52.5755911
  31.7913907  22.0677534  51.3337627  63.5162348  78.0863710  55.3884249
  62.9324980  78.5748441  56.0420085  63.1988972  77.1690781  55.6044941
  30.0199223  26.3306430  58.1449560  29.1961726  26.5998792  57.6818806
  30.3880803  25.8004071  57.3658466  21.1935047   6.6206571  48.1196978
  20.9080732   7.0758889  47.2693645  20.4536500   5.9569064  48.1379455
  20.2952138  13.9707122  47.2693972  19.8433988  13.3154204  46.7166410
  20.2089076  13.5496065  48.1553289  17.4490193  18.1000927  43.6773067
  17.9418642  18.6953969  43.0611515  18.1677467  17.5231344  44.0003614
  24.2940649  28.3723773  44.0402838  23.9265666  27.6450169  44.5398020
  24.8191115  27.8898678  43.3684326  23.1116703  20.8112203  59.7605409
  23.3486778  21.5091926  60.4003316  23.4845462  21.2217703  58.9346835
  25.7863998  23.0815417  44.3930553  26.5036543  22.4223235  44.1060400
  25.0339989  22.5221793  44.5114092  22.4506598  18.4360909  43.8946459
  23.1983251  18.7175089  44.4641671  21.9550786  17.9389108  44.5815906
  34.8556435  16.0156024  42.1155556  34.9244213  16.2670548  43.0943308
  35.6408898  15.4169148  42.0562757  31.2327230  16.9108084  56.3328214
  30.4212993  17.4701736  56.0712488  31.7438997  16.9760527  55.4589670
  17.3817829  16.3902624  50.3523683  18.2638342  16.3333998  50.7491607
  16.9245968  15.7056875  50.8833650  26.9323287  12.3599028  43.9970412
  27.5150970  12.8525824  44.6317223  26.1542972  12.1488638  44.5308115
  23.6317006  14.4344176  38.5880850  23.1866804  15.2748460  38.4582286
  23.8764951  14.1855344  37.7273048  19.7801819  20.7537230  39.6778233
  19.1914352  21.1855981  39.0145408  20.5866853  20.6538348  39.1405572
  18.0525295  30.6228201  42.4265868  18.6604845  29.9875868  42.0676869
  17.6947971  30.1299862  43.2163319  33.4453605   6.5918345  56.8397067
  32.9095738   6.9641288  56.0843359  33.1805823   5.6278728  56.7877624
  38.2747589  45.1811708   2.3386097  38.7782776  45.6881482   2.9670558
  37.9158085  44.4574808   2.9621344  30.6469397  19.4873643  47.0068170
  29.8827367  18.9082896  47.3203192  31.2744995  19.3256670  47.7612536
  22.9696884  32.1918499  51.6643948  23.5292555  31.3589113  51.5572511
  22.8864904  32.3849147  50.7131704  20.1436834  24.2151351  48.1271459
  20.3149245  23.3346537  48.4322078  19.1902470  24.3234429  48.3459647
  16.8387056  15.1512167  57.5527409  17.0959548  15.4188685  58.4237532
  15.8737282  15.2896303  57.6723165  29.9986040  14.9908235  47.4783501
  29.8529274  14.6220067  48.3287583  29.3274553  15.7101038  47.5030764
  34.6396680  19.4253615  57.7405299  33.8592652  20.0033309  57.9406019
  34.9717745  19.8589623  56.9677783  26.5410372  12.5046304  53.0422297
  27.2386867  12.6419756  53.7586525  26.9230516  11.6926133  52.6479749
  29.3434359  19.4259587  53.5048523  30.1344880  19.0152888  53.0646782
  28.7265563  18.7200227  53.4632400  15.9799808  12.7012772  54.1837615
  16.1297921  11.8583359  53.6931970  16.3081647  12.3559454  55.0910674
  22.8229409  23.1377314  47.6714903  22.0547955  23.7369225  47.8226024
  22.6616870  22.9880262  46.6691951  12.0541719  16.0720634  56.5073078
  11.6752118  15.3891038  55.8716231  11.4625433  16.8252360  56.2061724
  32.9212957  21.5744666  46.5589563  33.8248378  21.7852129  46.7809185
  32.5334285  21.2345895  47.3781785  12.6631100  11.9379817  51.3035356
  12.0417147  12.0759941  50.5258968  12.7869613  12.8819654  51.5537735
  19.9987771  25.8280231  44.9152271  20.5201178  24.9779517  44.9306731
  19.6877195  25.7237099  44.0007228  22.4163860  25.9008005  50.5996375
  23.0255701  25.3267342  51.0432778  21.5522068  25.4591278  50.7594748
  28.4234137   4.0127235  32.8656074  28.1347505   4.9842094  32.9813888
  29.3868593   4.1345042  33.0953627   2.1071061  14.5234826  48.3877501
   2.5950654  14.6497648  49.1870978   1.2382221  14.2835028  48.7462101
  25.8621327   5.3939192  56.3645376  26.3996645   4.8050981  55.8049932
  25.3563081   5.8538857  55.6334589  15.1434836  26.5546135  46.4997188
  14.6451308  25.7286520  46.4164839  16.0684078  26.2112700  46.4813488
  30.0114345   1.3211469  50.5200539  30.8081087   1.5527314  51.0652725
  30.1530789   0.3462040  50.4073331  37.9869397  16.0150729  54.6693350
  37.7993978  16.2644995  53.7646642  37.5585544  16.7830627  55.1107347
  34.1230789  20.5618570  52.8555872  34.9456780  20.7736070  52.4062120
  33.4824748  21.2007464  52.5365523  14.6420394  13.4872387  60.2010846
  14.4357910  13.7733893  59.3200230  14.9196103  14.2772752  60.6705132
  14.1960854  17.6784843  55.9755634  13.3867558  17.1194277  55.9781585
  14.1684781  17.9486302  56.9349676  35.1784097  22.1663778  43.8851586
  35.0723747  21.2076416  44.1860903  35.5778868  22.5242826  44.6713480
  28.4031918   8.7328123  49.1880618  29.2694303   8.2426781  48.9581330
  28.1115865   8.0059427  49.8362003  33.0383021  16.0963365  53.9724540
  32.3400441  15.3897173  53.7516587  33.6363063  15.5655656  54.5245539
  37.5547807  18.4460806  64.8069076  37.6472113  17.6930182  65.4162454
  37.0540113  19.0438045  65.4040820  15.2058650  24.0472224  59.8923247
  14.4769446  23.4803800  60.3147365  14.7036416  24.4345657  59.1942276
  21.0626489  23.5011042  50.8019996  20.1652167  23.5376203  51.2307733
  21.0922312  22.5326037  50.5990664   8.4420572  20.7503533  60.6270281
   8.6924455  20.9699858  61.5454142   9.0351938  21.3473420  60.1568142
  27.9726858   2.8801740  51.6632368  28.2889561   2.1799424  51.1248377
  27.2927798   2.3870634  52.2144700  11.7844092  24.8942681  54.2577583
  11.8003491  23.9389152  54.0240809  12.6323520  24.9672362  54.7238489
  17.5178012  14.4055935  43.0479769  16.6083668  14.3894109  42.6987966
  17.4160349  15.0370206  43.7759398  26.2456880  18.1792460  57.9189502
  25.9266528  17.9730291  57.0119181  26.9944373  17.5322546  57.9423499
  23.0674335   8.9289210  56.0410353  23.4512317   8.5334482  55.2333861
  22.2160382   8.4339405  56.0778420  19.5672947  16.4621014  44.1265071
  19.5201379  16.9618464  44.9878741  20.0536188  15.6321371  44.4150828
  14.9840079   7.0437733  45.5086861  15.5429391   6.5762969  44.8137890
  15.6695142   6.9453846  46.2823840  16.7441772   6.6733816  47.4251048
  17.6178486   7.1335453  47.5070543  16.5984971   6.5587675  48.4052460
  25.4383570   6.8581399  48.0849040  25.9709037   7.4083515  47.4675788
  25.9197384   6.0260596  48.0298213  20.2801085   8.8310061  36.2142522
  19.5712755   8.9676843  35.5197886  19.7889886   8.1352372  36.7107999
  22.9330759  10.8786766  53.8033521  22.0573590  11.2863084  53.8562293
  23.2016807  11.0717448  54.7406228   5.1909133  27.0093843  40.9869131
   5.4304511  27.0869384  41.8860109   4.7576469  27.8343272  40.8035751
  27.9775599  19.6991131  56.0323308  27.8967564  19.0621199  55.3123109
  27.7769526  19.2089835  56.7971630  23.3425328   8.1505976  53.1029718
  23.3968817   9.1303893  53.0500261  22.4779293   7.9890614  52.7519984
  57.7630119  79.9694682  54.1857272  58.4261385  79.6721168  53.5427173
  57.1586026  79.1881718  54.1277777  20.6415022  21.2723832  33.4044322
  20.7936310  21.3575760  34.3582070  21.5620764  21.2747817  33.0536165
  25.7850851   0.5616068  45.3728961  25.7624744   0.2841511  44.4378664
  25.6837151   1.5246099  45.2831603  26.0450359  17.3029908  47.4847364
  25.2889969  17.3207020  48.1044976  25.9485122  16.4237568  47.1029501
  17.5183408  22.0667262  43.4305647  17.5745963  22.0597288  42.3968353
  18.4058936  21.5984909  43.5622086  35.9235760  23.9444388  46.1824644
  36.4630706  23.8489184  46.9890058  35.1440251  24.3601421  46.5891905
  16.9861206  23.4242063  45.8746827  17.0991256  24.3930892  45.8724731
  17.1905702  23.1426740  45.0012679  25.6002634  14.6343947  55.9769137
  26.5425455  14.8708627  55.6728273  25.4029988  15.5552907  56.2763691
  23.5770374  26.3492046  45.5276431  23.2277619  25.4680298  45.2914990
  23.1070413  26.5488533  46.4094260  11.9329612  20.5565342  50.6159245
  11.1161141  19.9481358  50.6138687  11.8833988  20.8567252  49.7024320
  25.5574666   5.5362798  51.5004244  24.6826497   5.6840448  51.1220904
  25.3413208   5.5595315  52.4577989  33.5007929  17.0412757  51.3673110
  34.4563069  17.2874084  51.4144429  33.4540129  16.4143399  52.0952710
  12.9665794  32.8937757  46.9568061  12.1302772  33.1515098  46.4799728
  13.1114995  33.7674148  47.4374468  34.6122751  -3.8819702  55.6677732
  34.5694139  -4.8090170  55.3954871  33.9963308  -3.8268456  56.4191272
  24.1372657  12.4164749  55.6854572  23.3225928  12.9652237  55.8949997
  24.7577690  13.1760853  55.7977492  34.6894215  23.0455849  57.0215127
  35.4497446  23.2992834  56.5023232  34.0255620  23.0021749  56.3010900
   4.7505676  20.7152323  53.3702890   4.8325758  20.5938669  52.3830433
   3.8247183  21.0787192  53.4831369  32.4030505  16.0210222  58.7022221
  32.2805891  16.5239765  57.8789246  32.8410074  15.1929726  58.3918682
  20.8944923  27.5721069  39.9914230  20.9537486  27.7195386  40.9952150
  21.7575238  27.2519030  39.7648471  35.4767265   5.2601055  53.6330303
  35.8146904   6.0156770  54.1431685  36.0271462   4.5868378  54.0905327
  24.0967342  27.9072724  32.6393215  24.4810513  28.2231133  31.7949623
  23.2906981  27.5062884  32.1851471  34.5700819  15.1536939  46.2893245
  33.8486026  15.7076380  46.5735572  34.1004075  14.4232734  45.8408409
  26.1353728  10.5911352  56.2196610  25.3576562  11.1150656  56.0587762
  25.7882933   9.8736038  56.7338148  24.2066303  32.6036167  36.6074207
  23.3506849  33.0649950  36.3108190  23.8734080  31.7804676  36.9339463
  30.6621103  26.2630655  37.3910060  31.3485879  25.6439229  37.8076650
  30.3632962  26.5970744  38.2846652  38.5259943  12.8150620  49.4721489
  38.3535225  11.9060828  49.0681972  37.6999346  13.1665479  49.5982918
  26.7365607  15.4834161  43.8303015  26.4751752  14.9438037  43.1139789
  27.3247306  14.8954176  44.3684972  29.9249217  12.9389684  57.7424119
  30.1114414  13.3774731  58.6052585  28.9140335  12.9452144  57.7962253
  32.4541996  18.7333287  53.6598800  33.0255496  19.3987549  53.3045633
  32.9838925  17.9533573  53.7701049  45.3257207  21.2345614  50.7602262
  45.1519027  20.5463606  51.4404812  44.5151708  21.7887804  50.9678286
  41.4478449  -0.6895527  56.5565649  42.2434625  -0.1940143  56.8369760
  41.0186133   0.0267411  56.0422385  21.7724603   9.5447000  27.9501509
  22.0507012   9.6999886  27.0473168  22.1265017   8.6341544  28.1105755
  12.3205744  14.6389432  37.9557604  12.4878789  13.7878803  38.4536885
  12.8050842  15.2092097  38.5681225  21.5532205  20.8314744  56.4788166
  21.0625174  21.5900392  57.0004590  22.3887936  20.9457304  56.9384908
  14.6437093  17.8455438  43.4438066  14.6489469  18.4129554  44.2617553
  15.6111069  17.8424074  43.2631072  28.2134286  10.1129935  52.9574403
  27.8546822   9.2226796  52.7166908  28.2087468  10.0292752  53.9649439
  24.9763521  14.6373551  58.8138280  24.4607108  14.4707893  57.9527552
  24.9231558  13.7208606  59.2053572  22.9825731  13.3800583  47.2453289
  22.0328671  13.5544942  46.9361530  22.8558905  13.5636303  48.2254940
  12.4554628  19.0790432  61.4310737  12.3946892  18.1763583  61.8771806
  12.6535672  19.5505394  62.3251416  28.0924295  12.4100070  55.2128945
  27.7592701  12.2516237  56.0766882  28.8045667  11.7181888  55.1461393
  26.1841003   8.1888717  45.3517648  25.3302872   8.6568607  45.4887331
  26.7755194   8.9466230  45.7149904  47.9195789  52.0202966   8.1881812
  48.3472721  52.5816826   8.8537394  48.6330142  51.5350874   7.7892355
   7.3375482  26.1485910  55.9824785   6.4139237  26.1704841  56.1174400
   7.7068423  26.7642956  56.6374279  17.4696599  22.2872748  58.7098317
  16.7429110  22.8647195  58.9876742  17.0376966  21.4580188  58.4378540
  24.2395311  20.0493085  53.5103351  23.5178938  19.7919032  54.1208247
  25.0146537  19.6731440  53.8868057  25.8210647  18.6925307  42.6933015
  25.3532356  17.8601888  42.4425345  25.5626193  19.2266577  41.8871925
  43.4837305  19.0514933  55.8839341  43.1072889  19.8934918  56.2764247
  44.4071123  19.1054858  56.3019200  16.5334697   4.2286410  38.8672922
  16.1111285   3.4994790  39.3815402  15.7057144   4.7383270  38.6424735
  16.3665809  28.7074455  47.2881660  15.9793202  27.8215633  47.2668467
  15.6199561  29.3049156  47.4260850  23.2415655   6.4328988  38.5646259
  24.1918317   6.6633905  38.6244429  22.9869712   6.9043510  37.7568757
  29.5926332  22.2657481  57.0839070  30.4839748  22.3210967  57.3073487
  29.1651133  22.9950323  57.5188615  24.7373305   8.7159846  49.7833845
  25.3045646   8.7865856  50.5265965  25.0815917   7.8749526  49.3667330
  27.6061812  17.4182205  53.7206313  27.8973973  16.6909721  54.2752217
  26.8037379  17.0071255  53.3247251  33.9135955  25.0777403  43.5091429
  34.2413178  24.2133985  43.1729253  33.5383613  24.8824142  44.3541070
  19.3867535  13.3309296  33.1145857  19.2540531  13.2575575  32.1788098
  20.2536410  13.6547863  33.2365656   9.9591714  19.5648013  53.7398401
   9.8696383  19.3587628  52.7918445   9.0537449  20.0080195  53.8628144
  17.7644932  24.7937189  60.6662767  18.0148389  24.8362865  59.7322557
  16.8405226  24.4777193  60.6105594  36.7958654  13.8213016  42.9867234
  37.6376127  13.8270483  43.5269818  36.1547540  13.4670802  43.6557250
  21.5669468  11.1789547  50.0643250  22.0462932  10.4460860  49.6711292
  21.8069880  11.0667379  50.9867232  17.5915938   4.1329701  50.6631676
  18.4115634   3.6447531  50.3889557  17.6197616   4.0220213  51.6352456
  34.6844333  21.9935232  48.7258861  35.0080101  21.5658180  49.5637573
  35.3254443  21.5975325  48.1242920  32.2288727  18.9012892  49.2215152
  31.7413298  19.4885091  49.7691670  32.7366373  18.3506217  49.8051572
  33.1387536  23.8422756  59.0166456  33.0081017  24.7741830  58.7426484
  33.6403087  23.4793952  58.2747787  54.0348350  48.2539342  53.1221147
  54.9064688  48.4378809  52.7415645  54.0301461  47.2847327  53.1609050
  37.8131005  54.3728292  57.7235051  37.1598001  54.4210674  57.0272278
  38.5583159  54.8639546  57.3383511  56.3571820  45.4068323  54.3813448
  56.4557508  44.4708940  54.7691812  55.6352100  45.3386512  53.7867633
  19.9351833  25.0591896  10.9088025  19.9781897  24.8864232   9.9018887
  20.0083503  24.1615614  11.2424711  65.2824876  52.3985578  57.7454178
  65.6989292  52.6514051  56.8891305  64.4319001  52.0764204  57.3256909
  47.6998358  58.1739999  44.7040846  46.7149493  58.2087080  44.7742722
  47.8247982  58.3734162  43.7622720  54.2940306  48.5828815  55.8818696
  54.3338336  48.1716909  55.0218236  53.4044051  48.2244383  56.2011715
  62.2565508  49.2698886  51.9250611  62.5236408  49.6658671  51.1014036
  62.3250273  48.3547055  51.7838799  67.1933965  65.5244407  55.6563710
  67.9460041  66.1177657  55.5049083  67.5409771  64.9243173  56.3802732
  40.2280191  53.7946867  61.2291997  40.3306795  54.7168097  60.9063294
  39.3263998  53.9389848  61.6414972  56.7915684  67.1168934  58.1212973
  56.8138172  66.2190394  58.1506343  57.6424096  67.3804110  57.7096088
  50.4508883  71.9420396  60.1406874  50.9032344  71.2815323  59.6219017
  50.2539564  71.4469488  60.9500832  49.7395638  57.9820084  50.0985316
  49.1305184  58.2959456  49.4122859  50.6080683  58.0496836  49.7903340
  52.7646349  69.6443664  44.8275733  53.0280996  70.4614194  45.2361371
  53.6403811  69.1488637  44.8021327  48.1217074  73.5552767  51.4913535
  47.5457314  73.6372869  52.2843005  47.5978905  74.0320341  50.8418715
  44.1249465  56.9641880  64.6796275  43.9095152  56.1962468  64.1461202
  45.0743614  57.1196223  64.4510716  49.4383341  55.1733875  44.4629999
  49.7509784  55.9835087  43.9557201  49.2718929  55.5746742  45.3236672
  55.5296144  56.4607357  39.8117766  56.2276902  56.4296635  39.1306112
  55.6365056  55.5578845  40.1942313  46.5279677  63.9532608  41.0373518
  45.6769692  64.2681512  41.4211428  46.4592699  62.9886492  41.1500858
  56.6830981  81.8781763  36.8429514  56.3967020  82.8186657  36.6448933
  55.9237825  81.3825233  36.4938387  57.4902857  57.6833137  49.2841397
  56.6876069  58.1093672  48.9343035  57.2261795  57.7515730  50.2453575
  52.8089415  50.9277179  52.0412115  52.0478819  50.7596723  52.6029339
  53.3793951  50.1350483  52.2028645  52.7338075  55.1840536  48.5575366
  52.5941356  54.3068989  49.0057033  53.3239707  55.6183147  49.2151757
  65.8957384  59.5224178  54.9413107  66.1522531  60.4005309  55.4134507
  65.6739408  58.9790593  55.7415483  56.5719347  64.5766188  51.3104221
  56.3814526  63.6247514  51.3323961  56.3387201  64.8209700  52.2758896
  54.2580858  64.2314625  49.4242913  54.6656533  65.0252386  49.8367407
  54.1782062  63.6175297  50.1762851  59.2300690  57.0844129  34.8349997
  59.5526658  57.1313244  35.7543371  59.2072020  58.0393624  34.6239501
  51.3335286  63.8408820  40.8333739  50.4090405  63.6601886  40.6257593
  51.5354575  63.0540810  41.3825949  44.7133963  69.7391367  38.0320859
  45.1873928  70.5905665  37.9539114  43.9168263  69.9542295  37.4870259
  59.9663639  43.9810094  51.3580052  60.3595446  44.8515836  51.5926249
  60.6700897  43.6421491  50.7343789  60.7206297  54.1932171  48.7955804
  61.2156281  54.9474705  48.4067102  59.7740727  54.4579106  48.5872856
  53.6669968  59.8498136  43.9057433  54.2781071  59.5989581  43.1957651
  54.2246423  59.5833133  44.6953787  47.3795289  59.0561318  59.5776654
  46.7172817  58.4271344  59.9764230  46.9155110  59.1508001  58.6966881
  53.8282271  57.2043333  50.4602682  53.2160711  57.6391148  51.1469716
  54.3628256  56.6931177  51.1430071  60.0893939  65.4383093  48.2332611
  60.2991083  65.7795890  47.3663545  59.1317748  65.5636215  48.3384596
  69.2124164  61.8775353  46.4013623  69.1311787  61.4101431  47.2538415
  69.8580413  62.5518714  46.6528494  62.6660263  70.2212308  39.2560566
  62.5464923  70.0212095  38.2871319  62.4452692  69.3218996  39.5764950
  72.3729454  51.1845710  66.5062071  72.5708144  51.1701647  67.5171113
  71.6084530  50.5911644  66.4654039  55.8935680  54.1564988  52.8793756
  54.9035266  54.3181336  52.9293401  55.9038173  54.0556549  51.8462923
  56.3779230  53.3892854  47.8133258  57.2585353  53.0534485  48.0782907
  55.8435075  52.5742193  47.8940749  68.4971714  65.3643542  50.0950902
  68.8851474  64.4732919  50.2845432  68.0480875  65.5821633  50.8978949
  55.7498319  54.0562274  50.3417314  56.0549625  53.9438567  49.3789966
  54.8762113  53.6679002  50.2669107  48.6594464  67.3258077  45.6207548
  49.5988788  66.8846216  45.6272397  48.1704185  66.5856453  45.2298801
  46.4943274  59.7829431  56.8902510  46.4673206  60.7432995  56.8409169
  45.8895897  59.4670295  56.1897144  45.7806025  65.7641322  53.9045709
  46.6907931  66.0881525  53.7599014  45.8605888  65.5207871  54.8807943
  55.9997405  74.4273870  48.5936574  56.8506434  74.7729903  48.9053195
  55.5477194  74.1712830  49.3617215  54.5188825  60.5101796  36.7112985
  54.2287330  61.4187833  36.6566724  54.1491842  60.1718406  35.8468616
  57.5872629  64.5484195  56.9372802  57.2397424  63.7732441  56.4994357
  58.5044595  64.3167711  57.1389706  68.3148840  52.6860058  46.0664795
  68.8503553  53.0861421  45.3497590  68.3833722  53.3321815  46.7907003
  53.0867237  53.2967796  50.7712730  53.3368808  52.4775982  51.3330441
  52.1509984  53.2209549  50.8317645  41.7969384  56.2730680  60.7238692
  41.8969519  57.2783627  60.8550423  42.0563293  56.1599106  59.7805853
  51.4906045  70.4179698  52.0265825  50.5921632  70.5345882  51.7430324
  51.6669039  71.2114113  52.5857162  46.9396918  71.5072334  45.2483482
  46.9274099  70.5051083  45.2391541  46.0263495  71.6534195  44.8619083
  60.9850630  59.4133075  41.7297067  61.0234728  59.8927684  42.6048713
  60.1133332  58.9741398  41.8530555  47.5090566  58.1611515  51.8705512
  48.2580999  57.9905507  51.2489649  48.0016254  58.3663479  52.6874221
  61.0644818  73.8370229  59.0115609  60.4084677  73.3742672  59.6327593
  61.8608505  73.7296815  59.6172204  53.1402922  81.3706218  42.4853881
  52.1975533  81.2476895  42.2603189  53.2005924  80.7452654  43.2482226
  60.9856746  62.6904443  61.9886905  60.6853408  63.0590368  61.1816305
  61.9164619  62.8706187  62.0236208  45.9994959  55.4233622  66.3772249
  46.2946100  54.8783041  65.6502172  46.2234058  56.3378483  66.0296007
  54.5259850  43.5211024  57.2988096  53.9739850  43.9757818  56.6193301
  54.4743047  44.1225702  58.0348263  48.5579049  65.5815057  42.3073580
  47.8566619  65.1080905  41.7792723  48.6857492  66.3027136  41.6843485
  59.2803525  54.0398249  33.3275297  58.9687378  53.9249908  34.2781629
  58.8622192  53.2062932  32.9810162  60.0958774  43.3054537  54.7746023
  59.3909912  43.0974269  54.1916260  60.2330402  42.4463660  55.2448895
  49.8832827  55.9220150  52.2346983  49.9469517  56.3180413  51.3238102
  49.4733429  55.0711141  52.0473410  63.8320118  52.1023660  41.2358243
  64.1069454  51.9440548  40.2866926  64.6942191  52.2347734  41.6493961
  53.9403899  73.9898522  52.8183477  53.7841617  73.4421734  52.0727193
  54.8947730  74.1960045  52.8040657  55.9347925  57.6288743  58.4752235
  56.6697492  58.2487228  58.7326825  55.9762111  56.9940127  59.1913553
  59.5354439  61.4452004  54.1443577  59.8286352  61.4219454  53.1700715
  60.3888301  61.1742918  54.5976630  53.9538712  63.7166183  37.2622680
  53.4667853  64.4905624  37.0497145  54.1011605  63.8259068  38.2520606
  57.1571519  61.2435065  36.9482929  57.4580587  61.5083997  36.0316190
  56.3107876  60.8407024  36.7422040  63.3963410  59.5259979  45.1424927
  64.0956960  58.7982103  45.0866892  63.8689623  60.2155803  44.6662538
  57.6749191  59.2986548  51.8781034  57.1536807  58.4505568  52.0450130
  57.2785916  59.8234059  52.6279678  56.5456253  60.3168362  44.5679727
  56.4273078  59.7000292  43.7847971  57.4858013  60.2642849  44.7441058
  47.7726146  67.6393575  58.6143864  48.7178292  67.4791455  58.7633760
  47.5411668  68.2609648  59.2635834  44.9968361  71.5380919  53.1211640
  44.5226038  71.4283790  52.2901582  45.5767331  70.7509603  53.0808501
  58.3515524  55.2514351  47.8501705  57.4321354  54.9181689  47.8426736
  58.1680632  56.1766062  48.2452963  61.2836835  44.5232178  46.6905961
  61.2382615  45.3753607  47.2491050  62.1660762  44.6894669  46.2624439
  49.6876030  67.9501708  50.9761617  48.9536616  67.8849623  50.2934782
  50.4224964  67.6115515  50.4015292  44.6023663  73.3074671  57.2190982
  44.8264889  72.3585777  57.1895377  45.4322948  73.6563143  57.6612092
  52.6181937  70.2179719  48.4202675  53.0566623  69.5769373  47.8699806
  51.6315577  70.0286270  48.1688571  46.5592130  60.8249659  51.2977341
  46.6340901  59.8288720  51.2130528  45.7902401  60.9902287  50.7367039
  53.9106567  62.8921891  32.6090346  53.4220232  63.5955506  32.0863052
  54.7508861  63.4155874  32.7036470  59.2675279  57.7572403  61.9645349
  59.2992308  57.3803449  61.0988847  60.0279717  58.3834298  61.8834287
  70.0737948  47.9207423  41.0069542  70.0219169  47.2897679  40.2558581
  69.3205236  47.6266641  41.5479473  58.3381670  54.9548880  56.4199468
  57.9827730  55.2982947  57.2781274  58.0600563  54.0003958  56.4858671
  64.6887332  64.8116745  50.0219090  64.5326218  65.7458145  49.8913472
  64.7553145  64.5337287  49.0894055  48.9858862  69.3078845  33.6739519
  48.1009578  69.6835872  33.8901339  49.1871503  68.8061815  34.4636458
  60.5167421  69.2053628  61.7578562  59.6001882  69.2012240  61.4587470
  60.7955298  70.0982647  61.7166975  49.7216403  57.4848798  46.2583373
  49.0400794  57.5775389  46.9674966  49.1479818  57.9466370  45.5253064
  50.1868065  61.2736883  48.3206915  49.3204826  61.0387896  47.9568179
  49.9224197  61.2768746  49.3054016  70.5127751  70.2724225  36.6784393
  70.4741694  69.3644018  36.2476235  70.3552249  69.9927628  37.5900087
  59.9764861  50.1298565  52.9922497  59.4529830  49.3834321  53.2749127
  60.6465527  49.7106814  52.3743720  57.7206756  63.6260258  59.9181794
  58.4091143  64.3090521  59.7178964  57.0835529  63.7910752  59.1807538
  53.8239797  60.6154941  53.0833722  53.4062639  61.3362644  53.5959834
  53.9120951  61.1415260  52.2072254  43.5381575  74.4515288  48.7467197
  42.6201744  74.2510591  48.4766459  43.3257624  74.8753624  49.6059173
  54.0234916  68.4872601  47.2093520  54.9752198  68.5708157  46.8629255
  53.9786584  67.5230563  47.2111528  58.1778000  68.6045993  53.0565596
  58.1784050  68.1189112  52.1893922  58.2160278  67.8229284  53.6765456
  50.5806984  62.0934345  60.3701155  50.2025852  62.1230945  59.4385826
  50.2756862  61.2397204  60.6463378  51.1333874  63.6928042  45.6202907
  51.5334757  63.6714888  44.6741754  51.9592351  63.4918181  46.0935300
  53.3815688  65.0313703  54.1232400  52.8902797  65.9289414  54.1895970
  53.3232279  64.7619575  55.0517282  61.0893711  59.6961376  62.1610721
  61.6051488  59.3678434  61.4363055  61.0549549  60.6323222  62.0668427
  50.0357631  58.3615569  53.8376705  49.9502535  57.4301440  53.4667025
  50.8336524  58.2054766  54.3627276  48.0496839  58.5320759  48.0700412
  47.1799414  58.2193772  47.6902998  48.1195527  59.3955759  47.6686918
  59.9529246  61.5558901  50.7018423  60.4202781  62.2894557  50.2503411
  59.5579798  61.0576879  49.9593915  43.3977029  64.2972347  55.0352559
  43.8002883  64.6515700  55.8881553  44.0709160  64.4974457  54.3859641
  50.5391993  67.8219601  58.0007652  51.2606102  67.1297322  57.9964345
  50.1454382  67.6709241  57.1712144  53.9172381  69.4149797  53.7342644
  54.8309300  69.7653139  53.8513925  53.8498547  69.6083734  52.7474453
  62.0942759  48.0283502  46.4279008  62.4686239  47.1517730  46.1945073
  61.4588960  47.6948023  47.1789869  62.3542390  61.6465272  57.5431072
  62.5272081  60.7348897  57.3796960  62.9341128  62.1347531  56.9018261
  57.9778615  70.3866453  58.0409875  57.2320318  70.3965644  57.3748003
  57.9142119  71.2991598  58.3364290  51.2117404  64.9138979  51.2893715
  51.0717971  64.6985858  50.3426887  51.5629095  65.8245073  51.1932627
  51.1468067  52.5380891  55.2120119  51.6551209  51.8222501  54.7768266
  50.3882253  52.0426763  55.5775361  72.2659564  59.1990864  45.3080513
  71.3067135  59.0126541  45.2305161  72.5748280  58.9319795  44.4297975
  52.8774873  64.6827701  43.7012822  53.6767474  65.1706046  43.5155108
  52.1946902  65.3029644  43.3116123  55.7060580  58.8514099  42.5130406
  56.1760896  58.0453274  42.7184324  55.2682776  58.6816857  41.6295223
  61.7362239  43.5574687  49.3621616  61.3738908  43.8255682  48.4913677
  62.4833299  42.9749800  49.0676928  47.9394749  53.7813352  58.0419270
  48.2276078  54.6690755  58.2425973  47.2315266  53.9081439  57.3676788
  50.0504037  70.9920834  36.6749045  50.1723460  70.2693611  37.2592475
  50.8966991  71.0044326  36.1851565  54.2817371  72.8854728  43.8960413
  55.2133113  73.0914422  43.9645846  54.3628394  71.9952198  43.4604639
  32.8207407  25.3200826   4.8902674  32.5763339  25.0479814   5.7578767
  33.7657365  25.2620725   4.9185778  53.8034019  63.5220229  46.5843428
  54.5085354  62.8391864  46.4742760  54.2198174  63.9079619  47.4513949
  49.6465904  73.8260755  44.4976422  49.5394402  73.2290180  43.7816499
  50.6145265  74.0590722  44.3475882  56.1473791  57.4064356  55.8317088
  56.0694883  57.3062911  56.7779792  57.1334341  57.4063343  55.7392433
  46.6254542  56.7727461  54.2155749  45.9022121  57.4596566  54.3682691
  46.5530590  56.7303724  53.2425106  47.1479652  54.2621840  55.1525436
  48.1478277  54.2487835  55.0192415  46.9926097  55.1678999  54.8343418
  57.5823272  65.8814553  49.0554533  57.3127496  65.5812842  49.9719825
  57.3097029  65.1011149  48.5112241  58.6798604  75.4212590  46.2282326
  59.0892650  75.4333290  47.0910059  57.8276892  75.8446303  46.3097784
  55.7290792  61.3133678  47.0764095  55.9587199  61.0328616  46.1687514
  55.4949590  60.4287913  47.4687099  56.2254250  69.2249222  50.0196032
  56.2870087  69.7708594  49.1817634  55.3107869  69.5356742  50.2790992
  48.3076033  51.6854117  53.3943207  47.8242361  52.4524906  53.7852036
  48.5547945  51.2058826  54.2231895  50.3966116  69.0257361  47.4414812
  50.5814626  68.1145578  47.0771177  49.5897437  69.2438013  46.9045150
  54.6165935  57.9375387  45.9271807  53.7265494  57.5883485  45.8618954
  54.6764769  58.0735242  46.9179865  55.1789835  76.6257841  55.2865363
  55.1434012  75.6365559  55.5716510  54.3408835  76.7286702  54.9035414
  48.8195658  62.0588860  45.1074042  49.7532024  62.3528396  45.2399554
  49.0499494  61.1241618  44.8513761  56.6806985  48.6964539  49.2516088
  57.6950939  48.5999918  49.2271683  56.6402507  48.5688689  50.2444949
  53.9230477  55.8133499  60.1066031  54.0360382  55.2303039  59.2829917
  52.9655344  55.8034405  60.1749964  52.1426624  56.7879947  46.2924257
  52.0798426  56.1750543  47.0919216  51.2119442  57.1374522  46.3560488
  51.8552982  49.6320771  54.4966149  52.7502887  49.2879845  54.1861645
  51.7204140  48.9057677  55.1781252  63.0046753  67.7508970  43.3092240
  62.0509527  67.8759678  43.1287867  63.3111274  68.7018069  43.1935095
  61.1006370  60.5645887  44.1235930  60.4492088  60.1441662  44.7789766
  61.9036016  60.4610840  44.7019700  61.8894035  55.7864771  37.6764063
  62.5363960  55.9849493  38.3663628  61.0924500  55.5330938  38.1586866
  42.7871717  63.6372589  60.9270034  42.5455244  63.7677687  61.8915250
  43.7049953  64.0401698  60.9875137  56.6892606  61.9554493  50.6416690
  57.0323426  62.2933268  49.7543333  57.3894148  61.2725313  50.7719319
  50.8456302  60.7037507  52.4213652  51.0761957  61.5052081  52.9420183
  50.3772561  60.1904615  53.1470373  59.6701070  75.5915245  52.0595252
  59.5562150  75.0962636  52.9656902  60.4501201  74.9797401  51.8020795
  53.1174232  76.5409033  53.5431349  53.1230073  77.0792598  52.7377790
  53.3068686  75.6538854  53.2626203  51.8284454  61.1366611  64.9416699
  52.4711747  61.8797968  64.8316781  50.9612469  61.5470719  64.8514875
  44.5769789  60.4935311  49.4381886  44.6409966  60.8452147  48.5002191
  44.3015878  59.5732410  49.2909647  54.7363155  53.2094682  55.2693932
  55.4794909  53.3289259  54.6072452  54.0574696  53.7401751  54.8391938
  30.2247098  36.6491956  -1.5650601  30.1962229  35.6637417  -1.7153005
  29.2734873  36.8374933  -1.6779799  65.3073271  57.8949664  44.8086393
  65.8080447  57.5797396  43.9793693  66.0184609  58.5119983  45.0760849
  59.3327617  67.5739765  57.0348663  59.6875611  67.6734358  56.1500751
  59.9988725  68.0578062  57.5346516  65.9069800  66.9118551  58.7560455
  66.5996381  67.6345833  58.7991372  65.6538993  66.9569295  57.8247632
  67.5732027  48.7552626  65.2978868  67.3163620  48.3585585  66.1308307
  67.0660217  49.6001975  65.4012313  48.0421904  23.2679653  -1.7234344
  48.6257377  23.6084031  -1.0311495  47.6762373  22.5074538  -1.2742168
  60.3477220  55.3262075  46.1797089  59.4276462  55.3741315  46.5360268
  60.4960569  56.2875023  46.0424365  63.9000616  63.3246597  47.6651913
  64.4965085  63.2693275  46.8507998  64.1901199  62.5074073  48.1271931
  50.0560305  56.0079649  57.1255710  49.4706168  56.7300290  56.8899158
  49.9477756  55.4356428  56.2702593  61.7029987  47.7235749  56.4794049
  61.6467059  46.8342748  56.0769297  62.5839754  48.0361694  56.1247428
  48.3962455  59.3495185  42.1313076  48.1271118  58.8424922  41.3466119
  48.1294974  60.2162836  41.8679266  64.9971228  49.6650764  49.4010396
  65.0636813  49.7039634  48.4114912  64.0328550  49.9452830  49.4207037
  46.3882939  77.9790741  39.9494503  45.5851501  77.5473328  39.6393420
  47.0079752  77.1902238  39.9758008  64.7654474  66.3983221  56.2407159
  64.2780790  66.2312172  55.3953064  65.6318346  66.0347194  56.0347732
  57.9552678  48.7565686  56.3382819  57.5443788  49.6276305  56.0980000
  58.3108636  48.9757961  57.2333747  63.2208375  70.2559409  52.3430464
  63.3585732  69.7063194  53.1476835  62.2203302  70.4288786  52.5641737
  59.2762680  70.8699549  41.8516446  59.6916162  70.0792609  42.2570860
  59.2668635  70.5465949  40.8978023  49.3769250  61.6206194  57.8894055
  49.5130563  60.7145268  58.1615250  49.0277690  61.4045063  56.9928837
  55.3498184  53.6113216  31.4452827  55.4198077  53.4323033  32.4230552
  54.3841646  53.7990514  31.3649010  53.4950026  56.9661215  41.4402499
  54.1440753  56.8482373  40.7418743  52.8629587  57.6102855  41.0939241
  62.7454333  56.9229227  55.1466304  63.2109872  56.0372890  55.1824559
  61.8541166  56.5738863  54.8812667  66.5337822  55.0317521  58.4101852
  66.3763732  54.1129717  58.1742549  67.5061623  54.9768962  58.6770817
  60.1102608  59.1053556  56.7733358  60.7195540  59.5617018  56.1139878
  59.5566369  58.6584743  56.0868099  49.1183938  66.3666874  55.9421493
  49.7495962  65.6824799  55.6063835  48.4334975  65.7010298  56.1642241
  45.8267185  67.1004179  63.3338897  46.6514715  67.4525739  63.0026830
  46.0071594  67.0873644  64.2765706  53.7511852  63.5020354  67.1978472
  54.2362683  63.6701680  68.0684784  53.2380304  62.7022749  67.4822810
  43.4506091  72.3338841  59.7400370  42.4023088  72.2330868  59.7461348
  43.5132652  72.7669263  58.8754447  70.8652142  55.2207559  51.7430019
  70.8065347  55.3654422  50.7986404  70.8792179  54.2330611  51.8044867
  59.7463742  52.5114769  51.5773492  59.6296684  53.1257273  52.3210947
  59.8110826  51.6604487  52.0304363  60.2816595  44.9662854  57.9654409
  61.1602987  45.1186734  58.4178503  60.5385516  44.5840101  57.1215858
  47.7201253  60.9721795  47.3648074  47.9361976  61.4521724  46.5368382
  46.7625095  61.2215007  47.4360158  42.6588096  61.1509156  60.1845164
  42.3791622  61.5345616  59.3505990  42.7448102  61.9540975  60.7897843
  39.8832405  69.4795934  45.9335115  40.6938660  69.9895339  45.6825058
  39.4102242  70.1061966  46.4143123  47.8628996  64.9057193  44.8867563
  48.0770089  65.1262283  43.9555945  48.2882103  64.0349496  44.9484455
  63.3778404  59.0823313  50.7506257  63.9458509  59.8097817  50.5792606
  63.5675096  58.8794056  51.6748044  45.7228087  66.5822240  50.6095712
  46.2623074  65.7615826  50.6966297  46.3817439  67.2731671  50.5269770
  51.6555523  58.7055277  40.6682368  51.0514501  58.1901703  40.1395100
  51.8573946  59.4428901  40.1580777  54.1549226  68.1093977  57.6621631
  54.0087558  68.6626369  56.9276612  55.0999303  67.7672968  57.4959143
  54.2622259  56.9296649  54.1550371  54.9803812  57.1420329  54.7928169
  53.5439762  57.3526340  54.6960744  69.2945652  57.3127685  56.1319466
  69.5417810  56.3818224  56.4023813  68.9129221  57.1144294  55.2770271
  54.5965186  63.0492819  42.4451563  55.1328238  63.1448591  43.3231912
  53.7560542  63.4983524  42.7961122  60.8354600  61.9629071  34.8685856
  60.4436399  62.8542486  34.9741167  61.5714677  62.1692123  35.4995957
  54.8718569  55.7215630  35.5786443  53.9661960  55.7113516  35.3800205
  54.8956530  55.9062693  36.5460163  54.0636715  71.4307115  60.1804725
  53.9152765  70.6628599  60.7696857  53.3722029  71.2650077  59.4942278
  57.6247240  80.7517514  41.1922150  58.5110940  80.5593716  40.8037349
  57.0688073  80.5926987  40.4155616  50.7140113  77.5966798  50.0599558
  51.0787084  78.3960183  50.4027702  50.6597182  77.0087388  50.8161055
  44.7132830  53.6273670  55.7784008  45.6461415  53.7743024  55.5608253
  44.8362678  53.4286475  56.7313637  24.2538472   4.7050214  60.0479242
  24.5872070   3.8652165  60.3202566  23.3418121   4.5201257  59.7375799
   9.8480229   8.4644965  46.4916529   9.7959829   8.7112782  45.5909690
   9.5914786   7.5685444  46.5207437  53.2034382  76.9504548  48.4876018
  53.3841084  76.0252998  48.1414161  52.2372055  76.8397208  48.5006035
  43.5590909  37.4761044  -7.0876237  43.9940192  36.6516185  -6.8331820
  42.7670546  37.5077301  -6.5286030   9.0704410   5.8490054  46.9138192
   9.0260107   5.5458307  46.0082229   8.4428444   5.1346633  47.2850914
  71.3766042  63.7552329  49.7580219  71.4056370  64.6418557  50.2374918
  70.6917158  63.2902825  50.3531493  73.0285833  70.9810541  54.0085125
  73.6356756  70.2687035  54.1739906  73.5651728  71.7613661  54.2930518
   7.8290534   7.5289329  43.9250063   8.2759736   8.3894449  44.0872292
   6.9451659   7.9301896  43.6770663  67.5133840  63.3913394  60.1992139
  67.0784970  62.5259169  60.4657184  67.4177806  63.8713707  61.0676020
  66.0388597  77.3023888  55.2717810  66.1595754  77.4187509  56.2468041
  65.1714212  77.8321234  55.1758264  61.7208840  64.0867264  42.3142458
  62.2000693  64.5743182  43.0495828  62.4915629  63.6972897  41.8924085
  48.9810471  70.6859500  53.8854297  49.1899418  71.6008046  54.0158415
  48.8553161  70.5978218  52.9102263  47.6784405  70.3727924  48.3281888
  46.8653139  70.8412376  48.0763126  48.3585936  70.8580893  47.8838118
  62.6624346  69.3198386  46.3914809  62.9667989  70.2728660  46.5205034
  63.5353188  68.8803116  46.2510167  56.1708854  70.6675509  56.0164373
  55.4024740  71.2964303  56.0123032  56.3962537  70.6631678  55.0443792
  62.2933737  69.0271465  49.1932643  61.7425208  68.2728402  49.4805669
  62.5867944  68.7344853  48.3159514  41.5006711  38.2216138  -1.5757285
  41.3092082  37.2360478  -1.6448565  41.2600306  38.3724322  -0.6115090
  18.2334193   8.9888870  48.0615820  19.0049608   9.4787126  47.9455848
  17.5667138   9.3863621  47.4446235  65.2993018  73.4368054  45.1344123
  66.2643300  73.3495721  44.8520676  65.4336240  73.7758572  46.0526367
  64.0820565  72.4956473  55.9330907  63.5396904  73.2802136  56.3586906
  64.8695584  72.5935805  56.5113035  50.9337254  69.8955494  55.7041754
  51.0962781  69.0141264  55.2545492  50.3227626  70.2910450  55.0519639
   1.3872147  16.8979779  55.6439411   1.5376550  15.9176828  55.9145352
   1.4325152  17.2389707  56.5675394  45.7447268  35.3559389  -3.6618583
  46.5007118  35.9884673  -3.7035845  46.1587902  34.6201562  -4.2294248
  61.0832847  78.3013561  47.9148768  61.6640196  77.8378887  47.3043989
  61.6262032  78.4802408  48.6722844  39.5136296  47.6026940   0.6174503
  39.1571575  47.3036295   1.4654013  40.1111299  48.3014045   0.8616032
  35.0644544  27.8675613   0.9609584  34.5208446  27.1526808   0.4886017
  35.9632209  27.5824572   0.8069521  61.2440740  67.9357183  39.9563986
  60.8038477  67.1949320  40.3936555  60.4899587  68.5665064  39.8763272
  63.3274136  66.3667273  39.2994742  62.6626227  66.8953564  39.7753433
  64.1110479  66.5873646  39.8236038  59.4825585  76.3918790  34.5287411
  58.7826313  77.0177059  34.1680813  59.6501495  75.8307809  33.7550804
  67.6983205  62.4023023  44.2998269  68.1006526  62.9842229  43.6194157
  68.4532655  62.4168906  44.9305427  59.7989493  65.7975597  41.2251222
  59.1361016  65.1126326  40.9535199  60.5327336  65.2752931  41.5356435
  56.5642504  68.1926486  39.5646620  55.9760036  67.7559888  38.9486505
  56.5206602  67.5765882  40.3185246  61.7965704  68.6887234  57.6394852
  62.4157701  68.1718788  57.0948499  62.4174076  68.8114405  58.4164376
  68.3982590  66.4230800  43.5486035  68.9759084  67.0744416  43.9729745
  67.6912414  67.0074098  43.2729629  59.4466703  62.6328999  46.5204921
  59.5619610  61.6869413  46.2265032  60.2915429  62.9850361  46.1309938
  62.5854500  64.5514614  33.3041773  62.8975433  64.5289570  34.2480642
  63.4709478  64.7428400  32.8964689  23.0550249  -2.9927382  56.5537765
  23.0986778  -4.0077408  56.7540042  22.8855806  -2.7052360  57.4963454
  15.4384348  10.5909107  37.5939841  15.7657387   9.6642019  37.7573749
  15.8775125  11.0538550  38.3511822  75.8647784  54.1786486  34.8586986
  75.6477574  53.2215130  34.9171877  76.8172426  54.1080155  34.6258736
  70.6394565  68.0579529  43.7684595  70.3203545  68.7830004  43.2074858
  71.5894412  67.9985032  43.4889893  63.3843196  76.2302429  47.4493852
  63.6335796  77.1731281  47.6129719  62.9095208  76.3408114  46.6196761
  16.1041005   9.5870248  46.3337828  15.7934980   9.0108325  45.6251876
  15.4080259   9.5788653  46.9848866  18.6013444   0.1604970  37.7427525
  17.6649313  -0.1780606  37.6385319  19.0750096  -0.5796707  37.4009280
  63.3739676  69.1561290  59.7679990  64.1228456  69.7819982  59.7218498
  62.7333126  69.7063817  60.2969714  57.2232475  62.5723684  54.7752808
  57.9736528  62.3789587  54.2065296  56.9897850  61.7411768  55.1901682
  60.9794807  78.0977305  51.5788944  60.2939736  77.4167755  51.5982181
  61.7546588  77.6121355  51.1915033  57.6975636  72.6516137  50.4392293
  58.2121830  72.2520705  49.6556040  56.8047678  72.5231213  50.0303736
  69.2441186  57.6872001  62.3070168  69.3231952  57.6991586  61.3245461
  69.4499702  58.6263117  62.4504128  61.8967391  72.3235507  43.1087500
  62.4423146  71.5439242  42.9856802  60.9960411  71.9944215  42.7441420
  70.6993869  69.2826629  56.7396013  71.2551915  69.9405885  57.1966353
  70.1516040  69.0205537  57.5370599  55.3572874  78.9618336  47.5747599
  54.5589550  78.8748381  48.0728822  55.4447626  78.1390724  47.0678856
  66.8048676  71.8833878  35.9956519  67.3319277  72.1276801  35.2027366
  67.0287764  70.9593548  36.1255543  50.0371668  83.5193607  46.3742829
  49.8331534  82.5210887  46.4221383  50.9804655  83.4828231  46.5062371
  55.9040387  67.7334774  60.8536736  55.8613095  67.5648484  59.9012976
  55.0262768  67.8656124  61.0701440  66.6377334  66.0600485  38.9047156
  67.5376045  65.6584777  39.0690359  66.6639079  66.1796590  37.9613469
  12.5140307   4.1429796  45.5761921  13.4296828   3.8063828  45.4886892
  12.4075833   4.7099514  44.8449920  57.1116631  64.9816470  46.0863287
  57.2961369  64.3949250  46.8277541  57.1805920  64.3191954  45.3474682
  59.8178231  80.3197908  52.3570974  59.5856013  80.5539820  51.4249545
  60.3842178  79.5337798  52.1743474  34.3809550  38.9364111  -5.3039197
  33.6745983  39.2977819  -5.9094980  34.4165665  38.0004734  -5.5608496
  55.0382735  82.5219739  45.1491851  55.6311315  83.1361526  45.6306034
  55.5279781  82.3669815  44.3500819  31.3862117  37.8224694  -3.6170220
  31.9132488  37.1893943  -4.1056764  30.8868101  37.2492785  -2.9636334
  54.9778766  74.2989000  56.2361219  54.8581747  74.3140750  57.2051966
  54.4446941  73.4871296  56.0179145  42.7842557  73.0663630  53.9516869
  42.7790286  72.4089266  54.6338683  43.6730169  72.8263364  53.5669151
  25.4900195  34.8715162   4.7429994  26.4367220  34.7417331   5.0544832
  25.1141476  35.2462087   5.5935961  63.7046977  65.4172240  53.8737642
  63.5242374  66.1627470  53.3310306  63.4517054  64.6457985  53.3048477
  67.1498134  60.3670635  49.8863542  68.0601430  60.5924310  49.5368954
  67.3930313  59.7553472  50.6104620  60.3142693  59.3793828  52.4259923
  60.4418895  60.0145693  51.6796426  59.3700213  59.1370435  52.2531307
  61.5512107  57.9082096  46.4774171  62.1367246  58.5396162  46.0454726
  61.8269181  58.0949689  47.4403726  68.9048492  72.4184917  41.1398994
  68.6615173  71.8935979  40.3864282  69.8472426  72.6392314  40.8855167
  22.5486303   9.3049765  48.2359798  23.4047687   9.1620270  48.7150742
  21.9929321   8.5644791  48.6244825  53.3610550  75.6697800  46.0316015
  53.0341475  75.5809229  45.0818981  52.4590789  75.8358983  46.4786659
  75.4475179  60.8594096  39.3313020  74.9105031  60.1131243  39.1635529
  76.3533293  60.5967863  39.0545541  61.6101196  57.6179579  49.4143211
  62.3094971  58.0775206  49.9680805  61.3613644  56.9061114  50.0400281
  42.5635719  36.1804883   1.0358693  41.7546648  36.7051835   0.9540832
  42.2204180  35.2763394   1.2163813  69.1104669  68.0302832  48.8512764
  69.6686585  67.7361041  48.0567921  68.8706693  67.1014871  49.1692277
   9.7011748   6.8344712  49.3172569   9.6781120   6.4691150  48.3774706
   8.7712440   7.2512562  49.2237174  63.9602010  69.0737350  54.5635702
  63.6984204  69.6980877  55.2542329  64.8203913  68.7521967  54.9000082
  51.0624529  80.8527534  53.3361536  51.2330135  80.6013231  52.4038185
  50.7809763  81.8120824  53.2040499  56.8121864  74.1982223  52.4708938
  56.9065169  73.5925793  51.6849426  57.4061575  73.8068058  53.1290582
  72.0075751  70.6232059  41.7475995  71.4893506  71.3857423  41.4662225
  72.3034692  70.2218931  40.8903524  55.7777128  60.0876708  56.8004795
  56.7114688  60.3579460  56.9322925  55.7991644  59.1758318  57.1336407
  53.9445656  63.6957914  40.0062153  54.1652872  63.2237565  40.8798741
  52.9807511  63.7561267  40.1497682  65.5042901  61.9760131  51.2739268
  65.3430179  62.8640211  51.0763198  66.1262998  61.5780575  50.6393839
  59.5118502  72.4291540  48.5510552  59.8574142  72.5601965  47.6240702
  60.3532948  72.2977206  49.0353594  64.4761043  74.9630745  35.1139577
  63.6497739  75.5076560  35.1503852  65.1523666  75.5575857  35.4690164
  72.0542393  71.4061161  51.5135645  72.5005498  71.6038591  52.3466027
  71.2082450  71.9488844  51.6111513  23.0892868  -2.3333445  28.2115926
  22.6256314  -3.2095671  28.4751455  22.5193831  -1.7315315  28.7462665
  11.5467508   3.5075045  48.1179412  12.3175171   3.6791840  48.6943178
  12.0168439   3.6050118  47.2583493  61.0050396  73.1673206  56.3782550
  60.8249643  72.2215637  56.3544666  61.0482663  73.3946724  57.3028706
  65.2076822  63.6178310  45.4720405  65.1258308  64.5244715  45.1938975
  66.0236339  63.3757229  44.9908424  63.2080704  72.0624889  46.2820580
  63.9928347  72.2238818  45.6978249  63.5687422  72.2940421  47.1479667
  58.5026917  69.8058156  27.9917117  57.8488189  69.9112731  28.7535619
  58.1589919  69.0727288  27.5489855  51.7420732  72.4961266  53.6584564
  50.8607767  72.7484175  53.9525526  52.1352103  73.3790104  53.5073300
  65.0818945  66.0508228  44.1692300  65.8230474  66.1629204  43.5323311
  64.4638221  66.7345636  43.8198106  70.9058710  64.2515382  47.0112339
  70.4380671  65.1201120  46.9703328  71.0386591  64.1180652  47.9798274
  12.1719757   9.7117660  53.1935407  12.5214315  10.3198274  52.5114326
  11.3956350   9.2693017  52.7441569  11.0579497   7.1093802  55.7089097
  11.6135135   7.7887767  56.1823358  11.6362024   6.9652076  54.9287592
  70.8831055  68.3235448  32.6162656  70.8913764  67.7590962  31.7892660
  71.2365368  69.1485934  32.2678332  67.4205247  75.3203388  41.3850224
  67.8809998  74.5270573  41.1486711  66.4691284  75.0727645  41.3421903
  42.7394824  66.2537115  51.2477049  43.0156907  67.1109273  51.5867593
  43.5464667  66.0118543  50.7941979  51.5332257  61.2871431  42.4260018
  52.1209639  60.8052042  43.0258680  51.1848303  60.6018264  41.8827138
  68.9213111  57.6045007  36.9667239  68.6405766  58.0255453  36.1477546
  68.9447515  58.4376346  37.5624433  76.8399688  57.6830527  44.4253652
  76.5376764  58.2409983  43.6502123  77.2734296  58.4018391  44.9480858
  28.8085288  -0.3470198  25.1803918  28.1420579  -1.0607208  25.1710308
  28.2158580   0.4172323  25.0778117  32.2631485   2.1066988  52.1248062
  33.1155874   2.5864696  52.3013669  32.4808956   1.2022069  52.4573148
  21.3067914  14.4643003  42.8635847  20.9298810  14.2879529  41.9396651
  21.9050381  15.2240320  42.6191118  20.6554882   9.7354523  21.0676308
  20.8353186   9.3647806  20.1889481  19.7576359   9.3885909  21.1973475
  13.0654389   6.3119137  47.1007354  12.6190369   5.5935293  46.6148202
  13.9670188   6.2927396  46.5948293  70.5887129  69.3109879  39.4137112
  71.6048412  69.3931013  39.5538430  70.4926854  68.3375038  39.6098443
  27.7697674   3.3957385  38.0416776  27.4992050   2.4954658  38.0268505
  27.3913381   3.7865406  37.2252239   7.5759632  68.6971145  24.3441345
   6.7587482  68.9866919  23.8427443   8.2804554  68.8993295  23.6915349
  10.1369629  59.7174635  28.7017492   9.4346846  60.3913424  28.7396261
  10.0052361  59.2190794  29.5204340  30.2256136  10.2602778  41.0259226
  29.4470544  10.8186047  41.2282182  30.2470515  10.2420369  40.0902513
  29.0143213  10.5740560  34.7543897  28.7433923   9.6294758  34.8053521
  28.0869643  10.9772059  35.0233018  70.7190455  63.1353703  38.6974401
  71.5986392  62.9515093  38.9722591  70.4766349  62.3043797  38.1898105
  24.9808559  -4.8978956  53.3555528  24.7367438  -3.9323117  53.3866087
  24.3077795  -5.2272419  54.0167354  29.2783189   1.0715693  41.0409644
  28.8164630   1.9648007  41.0821628  29.5335910   1.0437182  41.9836683
  78.1751597  66.5252871  36.3400622  77.5354954  65.9051290  36.6927079
  78.3218896  67.1496804  37.0680242  24.5784158   4.7356509  34.0754871
  23.7680071   4.1678581  34.3116906  24.1558847   5.6015107  33.9118817
  78.5496351  61.0677336  26.0518652  78.2571925  61.0800020  25.0903244
  78.7481383  62.0304370  26.1185311  33.7477230  -2.0009645  29.7626543
  32.8388354  -1.8558100  30.0271907  34.1769332  -1.1849680  29.9521054
  22.3825818   3.4589050  35.0473643  21.9524807   2.6032366  35.2375101
  22.6624381   3.6704093  36.0152585  24.5407786   0.7160936  38.2042022
  23.9771718   0.3679042  38.9429193  25.3634706   0.8057249  38.6534279
  20.1549331  -0.2792090  50.0797465  20.2763930  -0.3783111  51.0510508
  19.1922369  -0.4768414  49.9679388  11.4617295   6.5730322  26.9161778
  12.1748443   6.6419139  27.6241192  11.8875822   7.0576282  26.2176331
  17.4976058   1.2984075  31.9924831  17.2100359   2.2387742  31.8349264
  16.8789410   1.0860973  32.7479146  31.3424942  -1.4041842  45.6410250
  30.8622617  -2.2639110  45.7082465  32.0569597  -1.6301728  46.2946032
  32.4986671  10.8541626  42.6475141  31.8780584  10.5125082  41.9776000
  31.9189350  11.4433265  43.1566901  30.3984919   4.0273209  37.2940361
  30.6351165   3.4823975  36.5698112  29.6553377   3.5092535  37.6993191
  70.4108613  69.6617444  54.0742854  71.2612974  70.1066071  53.8207243
  70.5442634  69.6564263  55.0470624  31.0142031   2.1819648  29.3207021
  30.3113052   2.1818917  30.0091352  30.6337415   1.4706456  28.7418277
  28.5559510  -2.5401333  22.8010844  27.9643800  -1.7690132  22.9009965
  27.8102402  -3.2367093  22.7006528  23.0116105   8.8664475  23.0833422
  22.4909085   8.8781617  22.2934510  23.8841265   8.5728750  22.8293734
  34.6938158  -0.2716288  27.3482612  34.4923114  -1.1714557  27.5530358
  35.1940569  -0.2690092  26.5339432  33.1917087  -3.2706464  26.4677202
  33.1074071  -2.9371039  25.5757978  32.2869980  -3.4737234  26.6509501
  24.2901423   1.1805305  31.0798617  24.8552006   1.6049092  31.7648481
  24.3221355   1.8421675  30.3983010  27.0361048  12.0275726  24.2655601
  27.3046920  12.8649214  24.6765433  26.0882384  12.1229834  24.1669877
  73.6179790  68.6742864  30.4596827  74.0017469  68.9436251  31.2613445
  73.9333104  69.3273974  29.8483449  77.3840542  67.0734573  33.6887383
  76.8530287  66.2731114  33.8280436  77.9463079  67.0116847  34.4557731
  19.0041839   9.0442007  33.6705265  19.7332064   8.9738413  32.9710051
  18.2874294   8.6474002  33.1332932  22.7278046  -1.3953650  34.9159240
  22.1620650  -0.5973685  35.0799234  22.8774565  -1.2371928  33.8933345
  50.9714555  33.3310767  82.1148035  50.5871235  34.1521656  82.3764928
  50.3044220  32.6966931  82.3883531  66.8088207  69.8800767  30.4731376
  65.8939115  70.2657373  30.4922562  67.2459552  70.6192114  29.9156307
  23.0873191   3.8735791  37.7162651  22.5124226   3.3830038  38.3620982
  23.1313094   4.7661136  38.2026479   7.0606143  68.2675138  28.8439294
   6.0996513  68.1861683  28.6204507   7.4575686  68.5759832  27.9839706
  72.9910052  61.7117675  33.8210628  73.9303186  61.8713801  33.8512733
  72.8468078  61.6816011  32.8436641  22.1108455  11.0071754  33.9592970
  21.5494300  11.7459929  33.7915573  21.5416358  10.2310583  33.8102218
  71.4317963  66.2002048  50.6658683  70.9790193  66.9341030  51.1568567
  71.7660037  66.7415339  49.9400083  37.8098657  10.3508503  48.3964047
  38.1339048   9.8190224  49.1411387  37.3033851   9.6921584  47.8881707
  25.8965740  -3.7355072  37.9379775  24.9520578  -3.3480506  37.9369740
  25.5475600  -4.6637922  37.8260772   7.6538145  67.2994335  36.2396263
   6.7113718  67.3169576  36.6203060   7.7100971  66.3753882  35.9555849
  73.1375182  71.7979865  33.7936684  72.2627540  71.7771093  34.1687010
  73.1313692  72.7665365  33.4663994  39.4096983   8.7937546  37.2356667
  39.1027977   8.6695297  36.2857130  40.3007363   9.0656670  37.0129144
  30.2186307  -4.1338468  40.5950002  29.5881117  -4.2921429  39.8218337
  29.6719164  -3.4317690  41.0921588   4.7435010  63.0099152  26.7273390
   4.9765367  63.2579691  25.8490250   4.5944479  63.9183360  27.1059077
  36.5174269   6.4096104  48.5095664  37.3843609   6.4142480  48.0349980
  36.0025484   5.8178348  47.9527680  20.2277378   7.2701773  42.2301952
  20.1915701   6.6427091  41.4535661  20.2110607   6.6222982  42.9387786
  14.1054164  70.0147132  34.0589298  13.1428662  70.1632996  34.0296634
  14.1088769  69.2564213  33.4288138  23.9494639  -1.9269441  44.0366507
  23.1361015  -2.0433509  43.5372004  23.6441144  -2.0398032  44.9654344
  23.7287506   7.4741040  33.4451180  23.2478779   7.2708111  32.6395624
  24.5247401   7.8961082  33.0862387  30.6987772  14.6856560  53.1278651
  30.0338973  14.4372308  53.8178505  30.8759341  13.7769493  52.7903784
  31.1906546  -1.0544868  29.9233269  31.2205958  -0.4466721  30.6787264
  30.5098683  -0.5998013  29.3116849  27.7894636   6.1211835  50.1577127
  26.9494562   5.7942479  50.4870044  28.4353244   5.7370741  50.7764874
  34.9739120  -3.2737394  41.1986745  35.3516788  -2.5622441  40.5730536
  34.2087027  -2.6721573  41.4702485  74.7971243  61.8568846  42.1710539
  74.8139165  61.9993827  43.1393123  73.9317853  62.1919971  41.9245448
  18.0035436   1.1078540  45.1673144  17.9020230   0.7307651  46.0720977
  17.0355467   1.0973204  44.9153656  28.5481911   8.0239113  35.7697312
  27.8785560   7.3023547  35.9833854  29.3855236   7.4838224  35.6907172
  68.2823003  69.9921928  50.5397108  67.5200319  70.2140684  49.9613214
  68.5804102  69.1489070  50.1806741  12.5276574   3.9318435  30.1974895
  11.8539430   4.5847462  30.0419177  12.1564638   3.4229481  30.9416766
  18.5813406  16.3538281  41.4810010  19.2077535  16.5696370  42.2145426
  18.5326737  15.3800271  41.5951568  21.8854532   0.6216195  46.7825339
  20.9581405   0.6362549  46.7561415  22.0941083   1.0359921  47.6621379
  31.0317293  -0.3462099  39.2709937  30.6367317   0.1569281  40.0382828
  30.1328172  -0.6443212  38.9268604  33.0272564  -0.9128153  41.0551244
  33.1190012   0.0490404  41.0339335  32.4394674  -1.0575651  40.3276002
  27.6855689   8.8990191  39.6606967  27.7992262   9.7625732  40.1021579
  28.5694644   8.7925072  39.2327715  16.0208471   3.6411916  24.0295248
  16.5881228   2.9100068  23.6358369  15.2280321   3.1746570  24.2295414
  28.6542336  -4.4974886  43.6968291  27.6772569  -4.5952648  43.8906601
  28.5431290  -3.7815132  43.0808422  26.7256368   6.1164610  36.3838124
  26.5467057   6.2213443  37.3273190  26.5968185   5.1870542  36.2130141
  16.9092185  70.3405995  29.8773541  16.2561226  71.0550014  30.0508108
  16.3665445  69.8293367  29.2051847  36.3356834   8.7537299  33.2666913
  36.3857059   7.8469869  33.5649611  35.9668228   8.6335601  32.3409672
  27.8085678  -1.2331919  32.5656418  27.2444676  -1.2074483  31.8245678
  27.2455652  -1.4454679  33.3396902  20.5730525  -2.4795531  43.2156240
  20.7735924  -2.9801778  44.0705680  19.9906041  -3.1630601  42.7958571
  26.4093244   5.8244670  41.5844987  25.5860482   5.8673182  42.1294980
  26.7994085   6.6932923  41.7090523  24.4948136   5.6251680  29.3767614
  25.4256796   5.5636078  29.5696383  24.3294689   4.6902353  29.0890247
   2.9483427  67.8464714  30.3035442   2.2320138  67.1526745  30.3704034
   2.8365647  68.2233358  31.1913657  13.4563750  68.8518141  51.4381724
  13.4498041  68.1895652  52.1846302  14.3933715  69.1436759  51.4795900
  32.3619260   8.3758853  37.7529834  33.1088978   7.7947181  37.4680729
  32.7099227   9.2412306  37.5052697  64.0447274  73.0700676  23.0448628
  65.0334561  73.1301753  22.9898197  63.8350520  73.1495175  22.0744943
  34.6223838   3.3496871  51.9379447  35.1266933   4.1111429  52.4025448
  35.1786937   2.6274087  52.3714502  14.8508852  60.5765623  35.3403045
  14.7151510  61.0347242  36.1813683  15.1465983  61.4056700  34.8086216
  37.6609941   0.8189747  40.5043974  37.4685082   1.0501862  41.3865081
  38.5858036   0.8693491  40.3514059  79.3617906  64.5972232  45.3200623
  80.3028267  64.3488897  45.4581473  79.4840034  65.1345310  44.5300058
  21.9734645   4.8980171  26.8402115  21.6331478   4.6016879  25.9381876
  21.3051208   4.4275820  27.3783468  11.9980405  16.1194713  25.8326974
  11.8467284  15.7050142  26.7463276  12.9492850  16.3167803  25.8516291
  27.2330763   5.7421592  30.4189668  27.3309730   4.8657212  30.8643110
  28.1203382   5.8006882  30.0362502  23.1190527   6.2601204  45.9094202
  23.7321964   6.6358913  46.6073351  22.8903650   5.4306592  46.2651518
  14.1074298   7.5676839  39.4675540  15.0140228   7.7991258  39.0876278
  14.2434172   7.9344937  40.3582912  23.6673900   3.0379579  28.5356569
  24.2733869   2.3274588  28.2152969  23.3275189   3.3220697  27.6461116
  37.4339243   2.5654776  30.5388388  37.9235465   2.8618765  29.7115033
  37.0417069   1.7854715  30.0977907  38.5310323   3.8055339  28.4098786
  38.5888899   3.8882444  27.4390271  39.3709321   3.3653590  28.5979819
  68.0484111  75.9972344  37.6203363  67.3328171  76.1463197  36.9666411
  68.4128589  75.1371957  37.3582017  27.7180105   6.3529211  33.5463811
  27.1724717   6.3985568  34.3923588  27.0858932   6.7885786  32.9584382
  26.1400763   6.5499363  19.4781890  25.7803774   7.1111859  18.8983663
  26.9458287   6.2462298  18.9801085  28.4516335  13.8450316  45.6351989
  29.3693049  13.9317646  45.4077092  28.3906868  13.4823088  46.5269042
  22.5284687   7.1699583  35.8941059  23.1783623   7.3833973  35.1965393
  21.7274044   7.6613940  35.6709648  20.2773707   5.0523960  33.4251002
  19.5744224   4.5319631  33.8950696  21.0592266   4.5674292  33.7854633
  38.4426931   1.8707808  33.3607266  38.2687893   2.6748549  32.8382080
  37.9892444   1.2002902  32.8041313  35.9189530  11.4083700  34.5185640
  35.6925572  10.4560144  34.2973117  36.6251149  11.2822249  35.1923129
  16.1813803  14.5119844  37.4994489  17.1046447  14.1389280  37.3819470
  15.7043874  14.0386866  36.7732970  36.9724382   4.4008018  37.6351277
  36.0460638   4.1619866  37.7384494  37.4068728   3.5559295  37.5638125
  21.3505903  30.9732989  36.2974615  20.7044780  30.8480144  37.0582609
  22.0367954  30.3274885  36.6457591  46.6656254   5.6593164  22.4192177
  46.1852571   6.0888326  23.1905480  47.0797119   4.9532753  22.9130865
  19.1276609   9.5847705  28.8024973  18.8120524   9.4975034  27.9018478
  20.1094044   9.4375417  28.6930657  20.1407163   1.1290454  31.3247263
  20.1992323   2.1122937  31.5063763  19.1681013   1.1221839  31.2472732
  33.6523176  10.4809387  36.1593039  33.6805614  11.2499450  35.6202388
  33.3896391   9.7780310  35.4842009  37.4234285   8.1094724  22.1890149
  38.2819961   8.4960767  21.9130802  36.8046749   8.8415034  22.0188649
  32.7294094  11.7936162  33.2635069  31.9985834  11.4401046  32.7112479
  33.4803026  11.3875935  32.8184562  47.6949270   8.0635841  26.5303111
  47.6314099   8.5705341  25.6831270  46.8758861   8.5209625  26.9868114
  43.9145387  12.6556580  36.9851913  44.3685500  12.0417022  36.3827917
  44.2071625  13.5552195  36.5772865  31.7280598   8.1432201  45.6737881
  31.0082540   8.6156897  45.2573644  31.8272662   8.5548445  46.5450618
  40.5922494  12.6523286  35.1184073  40.7922767  11.6985627  34.8984618
  41.3227374  13.0894773  34.6778347  29.2737783   4.8061161  28.4276003
  29.7747568   5.2921728  27.7121741  29.8485034   4.0900370  28.6933670
  27.0300420  14.3316822  38.2305323  26.3806219  14.1285733  37.5034978
  27.2953217  15.2367746  37.9484600  33.0217446   1.8315956  40.6533030
  33.8699458   1.6023856  40.1435086  32.6183629   2.4343573  39.9704723
  41.4394157   7.2418871  25.7068434  41.9021203   6.5235597  26.1366034
  42.0691328   7.9529506  25.6727414  40.4584550  -1.6470905  37.1679059
  39.6878604  -1.2266530  37.5175412  40.1438579  -1.7101637  36.2194241
  36.2891967   3.7154930  32.7270030  35.3799331   3.2211491  32.7100722
  36.6442320   3.3555431  31.8812403  31.7477232  11.1965323  23.4488156
  32.1187421  11.6739398  24.2546404  31.9649417  10.2808830  23.7720862
  31.8723637  22.4859071  32.5820877  32.7050012  22.9377498  32.3409442
  31.4194687  23.3017693  33.0059992  40.4293076  17.9250381  49.2721476
  41.3308077  18.0710052  49.6370746  40.5725290  18.0821640  48.3314308
  21.0660639  69.2580709  37.3490804  20.4794048  68.9175605  36.6233773
  21.4737212  68.3590631  37.6112956  45.3395348  11.2611343  35.4414735
  46.2922687  11.3377369  35.6504244  45.2960723  10.2671266  35.5697761
  22.5868489  14.6626029  49.7265877  21.9470176  15.4066761  49.8530034
  22.8575920  14.4867906  50.6262811  36.0309097  21.8531900  34.2961695
  36.6202477  21.6001761  35.0441337  35.1220837  21.9008991  34.7711844
  39.2982068   6.5630949  49.7119858  39.0141166   5.6843530  49.2822723
  40.2375161   6.4359140  49.6170873  31.1929030  17.8146749  37.3697553
  31.1184333  17.6710337  38.3309290  31.6015131  16.9470328  37.1200773
  30.4197800  12.7506857  36.6718019  31.0242855  12.7632160  37.4215078
  30.7749561  12.0407892  36.1263809  28.5102156  12.1304610  38.9623248
  28.0564294  13.0194343  38.7823246  29.2443928  12.2103166  38.3541462
  37.7766324  12.4045343  31.4652954  37.1415195  12.1876904  32.1452934
  38.2580188  11.5875486  31.2877224  34.1057335  10.9524019  31.0430246
  34.5325773  10.0630182  31.1002430  34.2367240  11.1775745  30.1238453
  25.1361090  22.9103079  41.0110808  25.2648026  21.9700273  40.7604717
  26.0592039  23.1422777  41.2589275  34.2703703  17.8332540  40.1687945
  34.6965418  17.6902764  39.2905597  34.8391621  17.2725268  40.7341129
  26.2689698  14.4558745  33.3265894  26.8200492  13.8337177  32.8170034
  25.8338193  14.9497607  32.5669178  22.7276703  -4.4733214  39.4816609
  22.6250116  -4.0090145  38.5955861  22.8253613  -3.6641734  40.0654874
  24.2560945   6.5634626  43.2222170  23.8654630   6.5517262  44.0748883
  23.9327866   7.4457269  42.8735322  50.2402412   4.7753941  42.3057129
  50.3647793   5.7140826  41.9211069  50.2398322   5.0054341  43.2268417
  30.0062483  10.5605534  32.2856932  29.7872300  10.6065352  33.2816727
  30.1311973   9.5370065  32.2574884  38.5360614   9.1608048  50.6922401
  39.5040423   9.3430580  50.4880324  38.6134763   8.1749531  50.6004801
  13.1803897   9.4446452  36.4796210  12.3994893   9.7288253  37.0615221
  13.9249042   9.8968995  36.8882027  26.4807991  75.6723037  51.2194405
  25.7962206  76.1071174  51.7940085  26.0352347  75.7108036  50.3618834
  43.1917205   9.3880119  26.3693936  43.5950704   9.7696335  25.6046976
  43.9389840   8.7549564  26.6649503  28.6963591   2.5256487  48.2866624
  28.5020454   1.6947135  47.7879175  29.3204113   2.1392082  48.9464545
  30.2437829  24.2298480  33.8919918  29.3698594  23.9048743  33.5647991
  30.0386467  25.1985292  34.0631100  24.5130517   6.8379457  25.4989598
  23.6627608   6.6099628  25.9768185  24.9273822   7.3022548  26.3394849
  39.5527675   4.9881549  47.6013211  40.2116704   5.3571425  46.9390097
  39.0127864   4.4539668  46.9674537  25.0596067  17.0575725  52.8434687
  25.4378112  17.3171061  51.9908464  24.5181501  16.2272487  52.5039697
  40.5524625   8.5773043  43.7486293  41.3500974   8.0132761  43.5479692
  41.0266731   9.4262194  43.9467816  30.1645603  20.0486820  43.9756883
  30.9103634  19.3630507  43.9610741  29.9246530  19.9134814  44.9292189
  26.0939486   8.2166972  52.5389432  26.4046639   7.5546454  53.2147374
  25.1699555   7.9486640  52.4474310  44.5897878   8.8892202  43.2234311
  44.8283939   9.8385932  43.1986583  45.1673628   8.5632388  43.9227805
  46.4703952   1.3411208  35.2502813  45.8663389   0.6783649  34.8899959
  46.9539885   0.8247479  35.9360908  20.5335679  29.5180082  31.5246200
  19.7546794  29.2147820  32.0082333  20.8757192  28.6688667  31.1621837
  39.9663178  16.0837792  24.1276091  39.2530736  16.4178387  23.5121227
  39.9069106  16.8083886  24.7818061  33.7167388   2.4613352  32.7813702
  33.1765830   1.6742849  32.9035764  33.0116875   3.1962894  32.9435026
  14.8650008  73.0924744  44.0895354  14.7652416  72.4487004  44.8372579
  15.8620844  73.0300722  44.0328980  31.6357857   1.9701336  43.1741617
  32.1434427   1.7160442  42.3997869  32.0491869   2.8298493  43.4396769
  35.2942696   8.9225009  39.6765172  35.9563989   8.8593497  38.9781378
  35.4299835   8.0402160  40.1285268  34.6446591  -1.8473978  24.0429492
  35.3312965  -2.5493636  24.0534848  35.2336990  -1.0374638  23.9699567
  36.2533223  15.4431761  39.4851411  35.4402985  15.5839944  38.9726531
  36.4658044  14.5297304  39.2773374  38.1126722  11.0290074  38.9943486
  37.8063034  10.9392839  39.9060750  39.0380513  10.6538454  39.0604535
  37.1957715   1.6762979  37.2392014  36.7986187   1.3106032  36.4143896
  37.5514319   0.8262279  37.6274637  38.5772624   8.8943805  42.0137892
  39.3859109   8.7947419  42.5741265  38.4109426   9.8646052  42.1151965
   9.5549881  62.5577251  23.0230208  10.3901382  62.1958695  22.6970871
   9.9394846  63.4165462  23.4284973  56.8553942  37.1662559  82.9243738
  57.0255575  36.1971276  83.0849553  56.1539161  37.3144117  83.5776508
  34.8093883   8.0096383  25.5834444  34.7461741   7.8156172  26.5588187
  35.1766539   7.1991069  25.2967753  34.7700899  21.1031970  30.6247383
  34.8351206  20.5412615  31.4333001  34.7905202  21.9909821  30.9988648
  35.1267085   4.8487714  42.0059044  35.9618777   5.4072558  42.0277188
  34.6162121   5.3729410  41.3668788  36.6350199  -1.6508252  34.6480668
  36.1589866  -2.3416539  34.1139243  36.1568015  -1.7678333  35.5110305
  38.2409602   2.3552673  20.6647570  38.4295344   1.8790893  21.4564844
  37.2714068   2.3078912  20.5966046  36.3807687  12.9546926  37.9723521
  35.5581812  12.4431368  38.1182283  37.0328996  12.2203749  38.1093704
  42.5733637   9.8317592  32.3006110  42.9323277   9.1417534  31.6853805
  42.4535054  10.5644088  31.6723937  34.4264802   5.9629732  32.9065805
  35.0716485   5.2061246  32.9521919  33.5669860   5.4203553  32.9753284
  20.2103210   7.7962152  45.8305257  20.0436650   8.7573702  45.9848432
  20.9907656   7.8285340  45.2782678  31.5681003   9.1817796  48.3396224
  31.3866940   8.4774382  48.9614444  32.4993130   9.4283283  48.5966664
  35.5182543  10.7782749  26.0435066  35.6377990   9.8113419  26.3798123
  36.0594631  10.7959201  25.2273501  26.6400155  17.8950371  40.2257719
  26.8854550  17.4042409  39.4442882  27.4055079  17.5953893  40.8308841
  38.5732896  14.2552359  33.9867541  39.3273066  13.5851490  34.1133929
  37.8726259  13.7359431  34.4695012  39.2750010  -2.2178869  34.9467208
  38.3550967  -1.9601886  34.6643030  39.6685112  -2.1954668  34.0338312
  42.5332816  14.3593881  33.8444742  42.5402370  14.8206472  33.0004082
  43.1943122  14.8402458  34.3709585  37.2597316   0.9170640  43.1848775
  38.1573830   1.2411881  43.4266900  37.3112579  -0.0505458  43.4379956
  44.4224845  10.6011180  24.1983590  44.2097884  10.7605062  23.2600205
  44.0166431  11.4185786  24.5539868  22.3396447  12.3246873  28.3378292
  22.1943509  11.3769413  28.1984442  22.5467056  12.2700486  29.3180291
  42.3430947  10.0762159  37.0021289  42.1509309   9.9447763  36.0750593
  42.0027848  10.9806931  37.1219664  20.1341706  -0.3268951  41.4824373
  20.5293067  -1.0504131  42.0944189  20.0999127   0.3523326  42.2477010
  37.8213469   5.8491535  33.4705546  38.6033550   5.7055588  32.9092404
  37.2276789   5.1101835  33.2471491  33.7993085   6.1896869  45.5517290
  34.2693382   6.7377518  44.8919921  32.9507472   6.6462408  45.6404179
  31.0472024   6.6830849  35.4728592  30.5953327   6.2018937  36.1836799
  31.4464488   5.9882699  34.9219141  38.8639959  15.6405440  40.7887703
  37.9052348  15.5025561  40.7298013  38.9371292  16.5935532  40.5903053
  38.3987667  19.6248448  30.6072895  38.1930608  20.4504331  31.0923069
  38.4405493  20.0028963  29.6917735  41.9313992  12.9956612  38.6790001
  42.6964440  12.8134624  38.0777305  42.5258759  13.4462217  39.4205848
  31.7664597   4.2277660  50.7534050  32.0220282   3.9403640  49.8139052
  31.9763097   3.4135470  51.2045563  45.9111817   2.2551813  13.7973775
  45.0235920   2.1810366  13.4482261  45.7471920   2.5980487  14.6936166
  31.2251065  13.3899612  43.4477991  30.5192037  13.6911742  42.8394963
  31.4467132  14.2598937  43.8276910  30.0982191   4.8264049  47.4498139
  29.6827876   4.8267811  46.6174789  29.5986934   4.1388883  47.9383611
  31.4866560  31.0179021  40.0895718  31.8262381  31.4934807  39.3080118
  31.7803166  31.6573196  40.7771988  26.8599379   2.6399087  29.2905214
  27.7170300   2.3501835  29.6295734  26.4723691   1.7809130  29.0508905
  35.8312406  16.7860089  35.3126197  36.4261082  17.2096789  34.6725325
  35.6995422  15.9278831  34.8377465  16.6121371   8.3271891  38.3118286
  16.8517159   7.6597355  37.6580236  17.4412993   8.5513342  38.7588783
  31.9499476   6.6649328  30.9565835  31.4708471   6.9023770  31.8036029
  32.1257932   5.7172578  31.2279864  24.9724260  19.8204876  37.2955550
  24.6158819  20.0505627  36.4057435  25.1035515  20.6967745  37.6160121
  39.4482856  16.1543118  32.1257955  38.9713418  15.7261768  31.4303961
  39.2190809  15.5743981  32.8769056  43.6504386   6.6438055  46.7020364
  43.4636694   7.4197387  47.2965755  44.4584186   6.8936270  46.2543561
  38.0336767  11.3274914  36.1407919  38.8453108  11.8882768  36.0362040
  38.1913839  10.9609918  37.0711217  44.6921998  14.8789028  35.9495762
  45.5254252  14.8590700  35.4635776  44.3010193  15.7841023  35.6866715
  34.3178070  11.2270869  38.5773704  34.5996520  10.3484657  38.9944295
  34.1131005  10.9045942  37.6670024  43.4955405   7.9161687  38.2557862
  43.7756200   8.5199663  38.9577654  43.2128973   8.5776903  37.6062484
  33.4391179  13.4226963  44.7654874  33.0172608  13.2940471  43.8736741
  34.2609028  12.8009467  44.6442414  37.8384979  15.4109536  36.9545346
  37.4404011  15.3961075  37.8545122  37.0123757  15.5219644  36.4573959
  21.8591497  67.7044884  34.9397221  21.9822233  68.5371814  34.4342162
  20.9574748  67.4504591  34.6395025  34.3146616   3.8898909  38.0531995
  34.0099834   3.1447495  37.5313254  33.5787986   3.9204176  38.7395356
  34.5598763  17.0279982  37.7756555  35.0813408  16.9935346  36.9230792
  33.7228322  16.5177019  37.4522818  32.3638806  13.1105409  38.4224425
  33.2041104  12.6085330  38.5005642  32.3546885  13.5693449  39.3379484
  43.1627237   2.7389442  48.9992307  42.3865833   2.2118655  48.7138908
  43.3488913   3.2308641  48.1873621  15.1085690  17.8466152  32.4013869
  14.4722662  18.0033003  33.1159975  14.5854877  17.3061403  31.8064824
  35.5247052  19.3005192  44.0357657  34.8323324  19.2972310  43.3277005
  35.7928148  18.3741621  43.9952683  14.7141464   6.0370963  30.1505550
  14.5079554   6.5020993  29.3492046  13.8506432   5.6231186  30.4147707
  78.2178560  68.1654279  38.3988862  77.3623323  68.3494126  38.7676062
  78.7693580  68.1287094  39.2063430  26.5641100   3.1142204  41.0552516
  26.6658793   3.2210245  40.0861399  26.6007168   4.1225177  41.2149557
  46.6464173  14.7715920  48.8930468  46.1714602  14.5309727  49.7315899
  46.6280051  15.7064563  48.9668305  19.7981066   4.2758676  28.2941645
  19.1625266   4.9330357  28.6825961  19.1262235   3.6015982  27.9647517
  32.5362824  -0.8576361  37.0459813  31.8325599  -1.5098275  36.9016299
  32.3339048  -0.6156625  37.9869478  22.3677428   4.2623634  49.4492181
  22.6487785   3.6971565  48.7218002  22.4290205   5.1803333  48.9985277
  26.9463117   5.8315786  44.3452681  26.7124944   6.6465926  44.8226631
  27.0654701   6.2051109  43.4215404  44.6638952  11.5673865  43.3156028
  44.9031363  11.6159747  44.3067702  43.9047976  12.1592903  43.3562218
  26.1158762   3.3258166  35.8328775  25.6373613   3.8449859  35.1923303
  25.6081203   2.4677976  35.7644491  27.0366429  12.4156600  47.6699314
  26.3588426  12.1197969  48.3247439  27.0253112  11.6728668  47.0861471
  16.1996667  71.1205205  45.7157757  15.6798271  70.5473728  45.1323110
  17.0698477  71.0919122  45.3367821  29.4428183   4.3445672  44.7904800
  30.0043276   5.1235379  44.5299443  28.5614408   4.8034597  44.7015457
  36.3468947   0.9938719  34.9346284  36.3808289   0.0583235  34.6441527
  37.1429356   1.3025422  34.3842048  31.8406809   1.5782784  26.4963170
  31.6830297   0.9604843  25.7569712  32.6822020   1.2586933  26.8213636
  42.5648585   8.0654055  30.0878864  43.3945625   8.4011877  29.6829361
  41.9344002   8.6051866  29.4442162  34.4178515  11.3943179  50.6274265
  34.5820690  10.9092737  49.7475598  35.0044483  10.8365430  51.1729386
  51.0174241   2.4527399  31.2198111  50.3548252   2.1886455  31.9030161
  51.5423341   3.1097637  31.7059931  25.9105490   3.3089988  45.0728497
  26.2402162   4.2212307  45.1142966  25.8839435   3.0886221  44.1370758
  28.9251128  -0.8820131  37.6837397  28.3530599  -0.5204066  37.0159783
  29.6154981  -1.3229855  37.1791409  36.8395206   6.9471771  41.4176948
  37.4865315   7.7056244  41.5865623  37.3341026   6.5822505  40.6653879
  42.3918887   7.2691252  35.1960754  42.1666873   6.5881407  35.7876690
  42.4076491   6.7580832  34.3329046  38.2312914   9.9833767  31.7275949
  37.5454462   9.5816522  32.3193175  38.5916539   9.1003638  31.4363073
  34.4499104   9.1610270  48.8464812  35.0676615   8.6360204  48.3309912
  34.4559319   8.6505706  49.6856620  42.3829163  19.9880568  27.2061039
  42.5027496  20.9151309  26.9320919  42.0727502  19.6068791  26.2885059
  33.7430722  19.9027623  41.6033053  34.6083916  20.3496741  41.3966856
  33.8837548  19.0764742  41.0313021  23.7146024  15.1408636  28.8792300
  23.0330849  15.1675631  28.1172279  24.5152469  15.0831865  28.3382652
  35.5149009  11.6979467  44.3233646  35.5384424  10.9975625  43.7036878
  35.4605136  11.1940917  45.1743846  10.4482153  16.2247505  30.3442787
  11.4022467  16.1814336  30.6341959  10.2919806  17.1784660  30.4336179
   0.0767889  67.6600913  55.0096074   0.3012817  67.5853537  54.1419415
  -0.8547852  67.9648478  55.0668300  41.8976575  10.9326983  41.4802504
  41.2383281  11.5853388  41.1790360  41.6847358  10.7694932  42.4237321
  27.2705316  20.6858806  34.2830928  26.7251569  21.2988267  34.8778533
  27.9548114  21.2709733  33.9897994  15.7778130  71.9827099  52.8545005
  15.8946667  71.1261086  52.4552124  14.8411634  72.0656191  52.9350871
  78.5467029  61.5670657  43.5243572  79.2705840  60.9442025  43.8314856
  78.1229024  61.7323739  44.3923001  40.0548667   8.1277498  47.6268326
  40.3010828   8.6293527  48.4026723  40.0104882   7.2622741  47.9188827
  41.5826228   0.8625194  43.3356471  41.3238928   0.7558368  42.4034341
  41.6127170  -0.0095081  43.6714871  30.9533598   7.5103223  41.6431310
  31.8673495   7.5770788  41.2782024  30.8496998   8.4617756  41.8795736
  36.6481352   0.2047275  24.3145328  37.3170458   0.6057172  23.6615619
  37.2645357  -0.0445993  25.0442441  25.1531577  14.8914807  46.7069126
  25.8978098  14.3242178  46.8101099  24.3919354  14.3491887  47.0342606
  30.6050794  12.3931453  26.2849592  30.8735103  12.0376523  27.1859129
  29.9462299  11.6729304  26.0263694  24.3191600  70.9288184  51.2023778
  23.3799828  71.1988976  51.2414037  24.3901572  70.6944322  50.2719425
  25.8968305   2.9734553  32.4787860  25.0602410   3.4997455  32.6186217
  26.5332158   3.4673945  33.0105542  43.1624276  17.2364639  34.9458333
  42.8394756  17.4181485  34.0599747  42.8637950  18.0726063  35.4259641
  38.9952916   7.6996660  30.7603831  39.6152801   7.0669960  31.1779903
  38.3613225   6.9974318  30.4048948  42.7217283   6.9143001  43.4915178
  43.3097127   7.7051161  43.4703642  42.6735373   6.7811880  42.4975875
  34.7336683   7.3438784  28.3173593  34.8940941   6.3855972  28.3604304
  33.7914407   7.3779199  28.6093794  48.8171606   2.2246179  38.3303442
  48.4945384   2.5963687  39.1763123  48.7393557   2.9855988  37.7166483
  40.5108272   8.4163414  39.5980459  40.1472513   8.4146438  38.7027792
  39.6828511   8.2267440  40.1441870  52.3426378  12.4541872  30.7377432
  53.0595617  12.6285559  31.3848292  52.8159406  11.9673576  30.0425570
  33.2651027  14.9305506  40.2808679  33.9470730  14.9022737  40.9801824
  32.7069201  15.6940899  40.4724001  31.6492619   9.9153958  19.2789328
  31.0011501   9.4324592  19.7834107  32.1705901   9.2512890  18.8212576
  15.2032659   8.5544946  28.4832854  15.4591755   9.4748070  28.5333260
  14.5813292   8.4779869  29.2286681  26.9054442  17.2262674  37.5880054
  26.1357498  17.7092892  37.2331527  27.5999975  17.6012038  37.0234118
   7.5658932  69.7565796  31.2266974   7.3314912  69.2699982  30.3710397
   6.6499950  69.8441643  31.6093513  22.1151530  10.3584323  38.1239313
  22.0171195   9.9736637  37.2190667  23.0600368  10.1401967  38.2234099
  29.9813471  10.5025631  46.6107395  30.3242665  11.3698848  46.5192258
  30.6171004  10.0290308  47.1663742  26.9576802  15.6930568  51.0467476
  27.5173825  15.1364415  50.4107887  26.4240927  14.9399321  51.3753031
  26.3713996  14.8503772  40.7001962  25.5829231  15.3805730  40.7361134
  26.4207958  14.7608560  39.6807837  12.6863075  65.3224843  35.7245618
  11.8601888  65.4887565  35.2404726  13.3175983  65.8905806  35.2049245
  24.8835059   9.2336623  37.8542392  25.2154131   8.3726997  38.2520642
  25.2431070   9.8654809  38.4133128  21.3441528   8.3282553  50.8476113
  20.3745640   8.2642770  50.8388572  21.5735294   7.4499250  50.5642080
  20.9967387  16.5533250  50.7470516  21.7619336  16.9750283  51.1223445
  20.7418579  15.9317792  51.4207640  25.2050467  11.4616398  49.6524754
  24.7887446  11.8438752  50.4300671  24.7986468  10.5784735  49.6322982
  30.5608517   4.7315882  41.5389885  30.4113098   5.7107558  41.4886988
  30.6503747   4.6249357  42.4710976  35.2608983  14.1616677  34.3046593
  35.2933229  14.0527894  33.2894332  35.4370444  13.2146477  34.5484687
  41.7169813   4.3868620  36.3434677  40.7822937   4.6763029  36.2000715
  41.8442035   3.9091937  35.4454035  38.2625584  -2.4043884  28.9939326
  37.4928720  -2.9816995  28.9503373  38.9680358  -2.9634993  28.6404226
  32.3547209  18.2912503  44.8415466  32.5599280  17.4821680  45.3899493
  32.2031840  18.8892610  45.6388495  24.4165929  11.9204272  40.4460571
  24.0226771  12.4473745  41.1862768  24.4997538  12.6275695  39.7785277
  42.3172594  16.8650837  27.1202339  42.2768922  17.8165567  27.2763593
  43.2737180  16.7612892  26.7955739  40.2486509  -2.0787078  32.3837641
  39.6300439  -2.7906938  32.0403612  40.5936739  -1.7521254  31.5107015
  35.5237175   7.5091964  43.9161489  36.1048394   7.0428519  43.2685452
  35.1846392   8.2515532  43.4364947  28.4464380  16.8888764  41.8215236
  27.8997745  16.4330565  42.5215406  29.2619798  16.4210499  41.8373936
  39.2734644  10.6522253  26.9036919  38.7565206  11.3992794  27.2669442
  38.8818465   9.9262955  27.4390710  44.7766325   5.4283848  32.0579927
  45.2868063   6.0961944  32.6725951  45.5028405   5.1959339  31.4404768
  14.5360449   3.6404264  26.8377107  14.1476440   3.4625801  25.9588733
  14.8913659   4.5364656  26.6804025  41.5113557   3.6031866  42.1515124
  41.7002359   2.6849741  42.3123190  40.6509845   3.7695480  42.5331436
   3.4404025  63.6492280  31.3399783   3.0933515  62.7574565  31.5669777
   3.1152396  64.0764646  32.2494039  32.2338309  22.3640223  41.5533800
  32.8210872  21.5511908  41.5559533  32.1890751  22.5670055  42.5094962
  27.4717537   9.8233762  46.8423989  28.4306155  10.0958004  46.7839808
  27.5660284   9.4473763  47.7726730  33.4001216  -2.5135846  32.9630375
  33.0317971  -3.3504881  32.6456991  34.1448613  -2.3692895  32.3716534
  36.4545551   9.7843200  55.5818190  36.8786400   9.9144412  54.6800471
  35.5220642   9.9746358  55.3699872  32.0692800  18.3572259  27.0426198
  32.8898516  17.8413096  26.8251514  32.5448416  19.0826212  27.5300138
  46.9251051  15.6861940  37.5931728  47.3261196  15.5981441  36.7229358
  46.0077357  15.8802444  37.3625837  55.3306268   5.5339646  30.8174246
  54.4234450   5.7797130  30.4614698  55.8254999   6.3037874  30.4147516
  34.9074806  24.7153770  35.9611648  34.9833580  25.0255313  35.0333891
  34.7587787  23.7496106  35.7788724  40.0892304  21.4286700  28.7168836
  40.9108773  20.9170797  28.5331805  40.4794065  22.0768793  29.3568264
  43.7113499  20.1781907  33.4913532  43.9145458  19.2497652  33.6023115
  43.0512823  20.2777307  34.1982249  46.7704724  16.1080362  34.6178992
  46.3620676  15.6800857  33.8171244  46.9058840  17.0125643  34.2351919
  50.2158571   9.9275013  38.8222832  50.5865991   9.8566738  39.7575165
  49.4733713  10.5568216  38.9707016  35.8735154  19.6892644  24.0382467
  35.8957405  18.9189941  24.6751848  35.1231748  20.1568034  24.4663776
  48.3776594  15.7059673  31.9889562  48.2054037  14.7529860  32.1101891
  49.0433140  15.6629818  31.2429597  31.4303706  21.9517778  26.6350240
  31.5964448  21.4311076  27.4641654  32.2096861  21.7581168  26.0929726
  36.8928456  24.3740178  20.0040055  37.8034982  23.9924983  19.8032351
  36.3121437  23.6154796  19.8484850  49.0809228  10.9549447  20.9391642
  49.0555413  11.0528888  21.8814417  49.9313257  11.4337612  20.7034656
  61.1016686  41.3288403  27.4779285  61.9450976  40.8698820  27.4952227
  60.6839496  41.1002804  26.6156104  59.3816269  44.9657228  31.5811519
  58.8452911  44.1983104  31.4906204  59.2636880  45.2010053  32.5013961
  68.8775323  41.6947915  37.8267896  68.8766572  41.1476253  36.9880236
  68.4622752  42.5156905  37.5085197  67.0518272  65.4137538  52.5778729
  66.3286388  65.9698691  52.1799003  66.5555948  65.0558817  53.2868344
  66.8006356  55.4495431  49.3805398  66.4441705  55.6605465  50.2065626
  66.2744395  56.1108634  48.8258120  54.5326117  49.5348682  29.8240133
  55.4566312  49.3916212  29.5839809  54.4328003  50.4970859  29.6727104
  70.8525897  52.3243276  52.0400150  70.2047451  52.0387868  51.4142090
  71.3682867  51.4720911  52.1744689  56.6488536  63.0107462  44.2829577
  56.5516022  62.0429490  44.5032574  57.5547948  62.9697845  43.9311366
  70.7795889  59.8320180  32.0086863  69.8836882  59.9607888  31.5290762
  71.2436382  60.5819003  31.5458413  55.1011952  60.9651135  40.5477780
  54.1543226  61.1080720  40.2619182  55.1926282  61.6672248  41.2275349
  62.5768299  64.3769684  30.2513340  62.4271717  64.7170140  31.1651614
  61.9204950  63.6597282  30.1049664  64.9010563  61.8848748  33.6310391
  65.2821297  62.0417106  32.7172873  65.7024936  61.9287329  34.1588005
  57.0983707  67.7693873  22.4867631  58.0889479  67.8048796  22.7191324
  56.7992187  68.3784596  23.2507453  67.6959056  56.6636637  31.7231854
  67.3891160  57.5847048  31.4842708  66.8505512  56.1799730  31.6638347
  59.5872536  55.3617718  30.0542925  60.4768555  55.4797734  30.4548357
  59.5883887  54.4364247  29.8655962  72.0631947  45.2291647  44.2083570
  71.6117700  46.1251750  44.1280260  71.3667832  44.7986601  44.7100193
  66.1015916  49.6241495  32.9472488  66.7142262  49.7689335  32.1850913
  66.4580613  50.3209480  33.5416319  66.9174351  49.1650208  41.4947454
  65.9620667  49.1610581  41.8062763  67.1844321  48.2652628  41.7686481
  68.6664481  44.0495724  46.2724234  69.2651407  43.5472401  46.8147853
  67.8433338  44.0473487  46.7663574   3.6271363  56.0587722  39.6190228
   3.1236250  55.6956902  38.8613523   4.2822936  56.6081398  39.2228386
  61.8816871  63.4107630  45.4700456  62.6980556  62.9339811  45.3375395
  62.1503244  64.3386201  45.4639651  62.1804885  45.6029259  31.6699541
  61.8098174  46.5227762  31.7067093  61.4231570  45.1982913  31.1388484
  73.5185133  49.0861333  42.6763483  73.3457215  49.0368320  43.6812950
  74.5255162  49.2648926  42.7571915  51.7584125  49.3983461  30.0777136
  51.6025915  48.6539083  30.6997172  52.7142577  49.5030566  30.0930439
  54.7477907  61.4305450  28.5832213  54.1159040  61.5128987  29.3067218
  55.4758704  60.9279063  29.0424526  66.0013727  45.0018983  44.9064383
  66.2268697  44.3467010  44.2025345  65.7418238  44.3193149  45.6075778
  75.9068845  40.3427371  35.9395058  75.2948315  41.0350959  35.5960597
  76.4659348  40.9187301  36.5014432  57.8270129  56.7245221  26.6823909
  58.3732070  55.9285467  26.7441282  57.7733730  57.0190964  27.6058653
  63.1049144  59.8088055  39.9421366  62.8757415  60.6597785  39.5051441
  62.3017763  59.7792678  40.5685310  64.6152108  60.8493563  48.6922725
  64.0836982  60.0381910  48.6711867  65.5212517  60.4627165  48.8299216
  72.3383448  44.9796645  47.5832078  73.0620458  44.3074418  47.8161315
  71.6049582  44.3144851  47.5679145  65.1824208  51.4985088  38.9148655
  66.1534035  51.6349889  39.0081018  65.1341727  51.4600827  37.9271248
  64.9860724  59.0691468  34.2300018  65.1773535  58.9559484  33.3045468
  64.5195314  59.9089473  34.3035056  67.8507650  48.4605362  46.6359782
  67.3863409  47.9474612  45.8928855  67.1485012  49.1610989  46.7297564
  69.6848201  57.5565102  59.6044764  69.1249505  57.9473477  58.8379622
  70.3111785  58.2690900  59.6491771  67.2779469  33.5302615  55.7556086
  67.4749908  33.7782720  54.8481245  67.0012547  34.4744590  56.0263658
  71.2398980  54.5960207  41.9823519  70.9155759  54.0639164  42.7972257
  71.3043995  53.8036395  41.4013723  49.6024345  53.2713192  51.5098084
  49.3333195  52.8257238  50.6451545  49.2184045  52.5609018  52.0854576
  66.6701962  49.7512332  26.5105973  67.3127887  49.0298236  26.2955879
  67.0833147  50.5099121  26.1099068  57.5291552  55.0289070  59.1568246
  58.0456448  55.0782215  59.9968476  57.0925261  54.1669950  59.2659126
  74.9109328  69.9210505  32.9278229  74.3336717  69.2843814  33.3881762
  74.4253247  70.7571931  33.1513321  62.3924802  49.8160068  49.0136660
  61.6603959  49.2114694  48.7098197  62.0388916  50.7001889  48.7602783
   3.1772644  43.2174193  40.1393299   2.2115118  43.2485148  39.9767072
   3.2898598  44.1350458  40.4595505  57.0034706  53.2417190  24.6350213
  57.5355656  52.6985297  24.0007464  56.1269301  53.0281532  24.3259243
  62.2867835  62.0041622  38.3369719  62.0303915  62.9477186  38.2201839
  61.4457356  61.5853385  38.0647072  51.8555737  56.2758476  25.0560233
  51.4467298  57.2323940  25.1051465  52.7025739  56.5745127  24.5672109
  65.4049786  50.3124906  46.7107347  65.6637670  50.6186291  45.8340106
  64.8271757  51.1000039  46.9875508  57.4804690  56.2788319  42.3579677
  57.4222411  55.4403153  41.8396972  57.9788144  56.8286180  41.6981275
  56.2145457  64.3359560  32.7264598  56.8149490  64.8365632  33.2683646
  56.2308762  64.6919202  31.8388443  66.3304705  50.8181922  51.8205355
  65.9180230  50.3734857  51.0254292  66.5387231  51.7055990  51.4418025
  71.9978780  39.3390388  36.7922880  72.7535783  38.9362603  36.3862457
  71.4412662  39.5387353  36.0187375  61.9816268  54.3714644  44.2502502
  61.3111962  54.5699307  44.9470871  61.4076905  53.9641356  43.5983782
  28.5443022  -4.9000712  29.0347898  28.7571069  -4.2254246  29.7597972
  28.9184201  -5.6681578  29.4980548   3.1759226  36.2847663  34.2878733
   2.4728630  36.6645019  34.9273979   3.3415434  37.1434907  33.8242051
  76.2976169  57.8501570  18.4709502  76.8864703  57.0550139  18.5942634
  76.2292328  57.9237970  17.5391479  69.8879356  52.4316556  31.4033443
  69.4251426  53.1004907  31.9584314  70.3037991  53.1015684  30.7744315
  58.7620525  58.0648864  40.6291020  57.9280612  58.4458961  40.2553229
  59.3268685  58.1050244  39.8801744  63.1718947  53.2861247  31.6977542
  63.5757498  52.4830364  31.2918538  62.6187076  52.8429986  32.3645316
   5.4404952  57.5065950  44.2564814   5.2663607  58.3629024  44.5984986
   4.9572517  56.9494781  44.9362622  64.8810254  54.9899634  29.0122521
  65.0716635  55.9035820  28.5980150  64.4970302  55.3483717  29.8576849
  63.2939140  46.0345375  42.6412542  62.5979776  46.5231267  42.2489880
  64.0974029  46.3713939  42.1346750  72.0064970  64.2393637  30.5161598
  71.9247392  64.1480277  29.5221008  71.9352615  65.2149416  30.5535607
  66.0252514  51.7440957  44.5130599  66.5580944  52.5465309  44.6577073
  65.7401226  51.8750408  43.6032678  57.8114745  64.0855541  40.5816117
  57.9286004  63.0944400  40.4537007  57.5915781  64.2990082  39.6073607
  55.8372345  60.3320491  26.3377711  55.7024746  59.3663213  26.3714872
  55.3073099  60.6747833  27.0869595  78.0064783  59.4855215  29.9337311
  78.1447872  58.9739264  30.7396431  77.2085524  59.0330595  29.6010034
  65.4720719  54.8952216  39.8153378  64.6355422  55.3238251  39.9433396
  65.8415085  55.2621549  39.0303192  74.1894536  56.5753840  34.7387710
  74.5808445  55.7366561  35.1708632  73.4268363  56.1777887  34.3155349
  70.6405173  41.0859925  39.6372758  70.5858920  41.8860737  40.2050768
  70.0009314  41.3534405  38.8936481  62.9582291  49.4322634  40.1840832
  63.5102753  48.6516319  40.4567195  63.5291993  50.1190392  40.5990104
  59.0421745  50.7672657  33.8846119  58.4186036  50.6010789  34.6376187
  59.3782704  49.8538973  33.7040853  53.1343236  63.0841540  51.9832992
  53.4355315  63.5077206  52.8231606  52.2376794  63.4932056  51.9380309
  77.8522023  58.0083234  49.1081565  78.0296093  58.0017485  50.0379146
  77.1651949  57.3112895  49.0385939  78.3042705  54.7719680  26.7121378
  78.4951025  54.7113259  25.7580311  77.8730686  53.9062898  26.8517801
  58.3288028  50.4596592  36.5370820  59.0188428  51.0657468  36.9720626
  58.5823237  49.5920045  36.8914692  77.4338479  54.0762643  29.3038419
  78.1148319  54.0071273  30.0034921  77.0061778  54.8970615  29.5692934
  65.3959885  55.0051530  32.2474149  64.9402746  55.5566766  32.9482666
  64.7978657  54.1990316  32.2499871  71.1613729  49.1668895  29.3958674
  71.8597229  48.5223188  29.7641663  71.4133603  49.9265700  29.9257579
  61.3525759  53.1408817  41.3870645  62.2514577  52.9097133  41.1477042
  61.0305519  52.3189540  41.7319409  61.7066546  51.4774756  33.5692481
  61.7987965  52.2747682  34.1431101  60.7617958  51.3681086  33.5767805
  74.6297130  45.3779215  45.7129611  73.9386978  45.2820867  45.0154086
  74.2161980  46.0198069  46.2887129  74.8259643  66.8575901  51.3277465
  74.7212564  67.7792970  51.5542506  74.3811903  66.8512341  50.4438516
  69.4621255  58.1767419  45.1527279  68.7342501  58.7910148  45.3160221
  69.6938547  58.3200470  44.2235491  68.7838658  50.3775175  43.8218246
  68.0599406  50.6428277  44.3930611  68.2791712  49.9687432  43.0627439
  68.4088957  71.6081329  29.2376224  68.4967153  71.4687547  28.3099322
  68.0743962  72.5549358  29.2443822   1.7641812  51.4000988  41.6856389
   0.8614107  51.3408681  41.9723672   1.8724037  52.3802043  41.6345618
  62.7150220  50.0242526  44.6759285  62.4599233  50.7756952  45.2201021
  62.6030960  49.2637803  45.3140668  68.0024287  50.7251426  35.0119896
  68.5557676  51.0609169  35.7703942  68.6594755  50.1684705  34.6092657
  65.5702154  51.4948439  36.2770557  65.5859611  52.4464806  36.0271559
  66.3562025  51.2089999  35.7382327  75.6397150  55.9127054  55.1163254
  75.2803648  55.4003046  54.3370885  75.3815368  55.2499358  55.8025281
  61.8320261  45.8703982  39.0433641  61.9453866  46.6236685  38.4440671
  61.3630883  46.3530625  39.7962550  58.3620740  71.0437888  46.2992897
  59.1345078  71.6126764  46.3443055  57.9269129  71.4524910  45.5171804
  64.8474927  41.7349260  24.8544493  64.0596723  42.2454034  25.2125423
  64.5725490  40.8162386  25.1526489  54.2311409  66.0811424  41.5877344
  55.1696456  66.3480257  41.6751130  54.2698858  65.3437568  40.9805245
  51.9882836  62.3942800  35.6258505  52.4897723  63.0756840  36.1191386
  51.0810999  62.7041900  35.8818719  50.4623917  67.7592026  31.5502847
  50.6384181  67.3007500  32.4221071  50.8633284  68.6430480  31.6723478
  66.0627154  46.9165253  38.0351755  67.0245181  47.1617281  37.9053897
  65.6387579  47.4462870  37.3778665  68.0220981  54.0648263  43.4367067
  68.4945768  54.6591294  44.0611130  68.6998962  53.3606484  43.3451507
  64.5385685  54.3496514  45.7192541  63.6719308  54.3666553  45.2318931
  65.0989868  53.8722945  45.0348365  65.4605234  58.9272981  31.6207462
  64.7950558  58.5666637  30.9864850  66.0705348  59.3440022  30.9408563
   0.5282906  43.4038403  39.5965161   0.3896687  42.4730317  39.6034654
  -0.1416830  43.6735194  40.2952084  51.1536316  66.3799587  45.9503377
  51.2884843  65.4052953  46.0440406  51.5465906  66.5985994  45.0617447
  59.9431096  68.1995347  42.7942092  59.7236800  67.7197911  43.6243591
  59.5966185  67.5409188  42.1410841   0.6677225  44.6456541  33.8930889
   0.9000258  43.6592139  33.7551036   1.4471487  45.0542091  33.4434448
  67.5647916  49.1891882  49.9924770  66.6532424  49.4506946  49.7511020
  67.3793941  48.5829324  50.7722187  70.1531153  56.5747581  31.1089257
  69.1913220  56.4858470  31.2550480  70.3921111  55.7651650  30.6085110
  75.2164786  59.1335815  22.9911695  74.2683638  59.2679805  23.2875052
  75.0874584  59.3411692  22.0083868  63.4250483  45.6139893  45.2711106
  64.3567990  45.2951735  45.3192005  63.3747560  45.7558977  44.2884389
  50.9667939  47.1650701  43.0469019  50.8801875  48.0647916  42.5980835
  51.3977755  47.4243700  43.8569495  59.6435855  57.6954108  37.6924340
  60.6605930  57.5837812  37.6796982  59.6339361  58.6228490  38.0274634
  74.3023515  58.0894472  38.6381540  73.7538213  58.1189637  37.8367666
  74.6858291  57.1415773  38.5422126  68.2535644  46.3837315  42.0541888
  67.9251321  45.9733699  41.2128181  68.6569279  45.5826573  42.4625111
   1.9826966  68.5616238  32.7679601   1.5089617  69.4395680  32.5230930
   1.1454801  68.0452181  32.9704944  62.2070746  55.7321683  31.0595167
  62.0747952  55.8275206  32.0198627  62.4894393  54.7275724  31.0785289
  56.2600436  53.5963215  34.0456886  56.8470556  53.6120257  34.8381510
  55.5867454  54.2130620  34.3235343  54.5806685  56.6502981  28.8823019
  55.4242376  56.1558771  29.0327148  54.6707249  57.1540022  29.7422227
  78.4482883  51.8232228  42.3175381  78.9289505  52.4733280  42.9576784
  77.6116145  51.7169742  42.8395665  70.7675631  58.8334048  34.4895192
  69.7681444  58.7869170  34.5798412  70.8147703  59.3283956  33.5862123
  68.4499559  39.9957947  35.6754157  69.0467786  39.7886872  34.8581500
  67.6471680  40.1772152  35.1118133  67.8959048  41.9297555  31.4362003
  67.3428724  41.4831154  30.7314978  68.3253243  42.6084473  30.8762052
  72.3393103  57.5837906  29.9062355  71.5092925  57.3403559  30.3096920
  72.7640293  56.7252307  29.7918463  70.0669107  41.4669388  26.2608128
  69.2711370  41.1376707  26.7009530  70.7166244  40.7468180  26.3008287
  69.2449375  69.1662311  25.6649191  68.5667902  69.8738579  25.5941362
  69.7863931  69.4337695  24.8691803  69.7240404  45.4740776  35.2420645
  69.0161430  46.0094643  34.8585759  70.0930098  44.9871160  34.5078708
   0.1825356  53.2870863  44.3338418   0.6463989  53.6426495  45.1377090
  -0.3839322  54.0961984  44.1223936  70.4224384  60.5255070  40.5288954
  69.9105609  60.2054469  39.7619447  71.1499350  59.8454742  40.5128941
  76.0909279  63.5648894  29.6351986  75.6017734  64.3657268  29.9125206
  75.3392452  62.9455200  29.5635643  59.4841726  50.4203666  47.4284890
  59.5778438  49.7341220  48.1405020  59.4757985  49.8930346  46.6134195
  64.8976855  73.3925309  32.9742580  64.0530513  72.9389198  33.0509195
  64.8584325  73.9107748  33.8392439  50.1383517  63.1588586  33.3062235
  51.0962987  63.1713401  33.5685636  49.7273300  63.4827173  34.0963657
  73.7067965  55.5774699  43.1379016  72.8494236  55.2719168  42.7150505
  73.4820232  56.4786031  43.3561198  63.3826425  45.0376490  52.6824651
  63.6215639  45.7514210  52.1279496  62.9090369  45.4290506  53.4465636
   0.8945967  66.7430961  34.8538796   0.1582043  66.6580004  35.4558304
   1.6298712  66.6543330  35.4883595  72.6324382  54.0517494  55.5067809
  73.4766183  53.7711912  55.8275122  72.2342553  53.1855292  55.2292290
  67.2341448  46.9004714  34.2025079  66.8790031  47.5302310  33.5374371
  67.0489029  47.3770631  35.0172095   5.2819548  59.9538113  36.5644667
   5.3213942  60.8935990  36.8591004   5.9954806  59.6006491  37.1504230
  60.1243737  52.7081946  37.2492998  60.1534218  53.1943361  38.0800651
  60.9693120  52.7854470  36.8312540  76.8403170  50.3847484  37.3830263
  77.2071993  51.0404341  38.0692465  76.1222587  50.0214885  38.0130471
   2.0468820  44.5658834  29.8776609   1.4126252  45.2003044  29.3686364
   1.6733674  43.7099180  29.6081736  74.0885848  46.1754882  49.2803412
  74.2700720  45.2235926  49.2031448  73.4007264  46.3225700  48.5554426
  58.0618671  61.9718039  31.1751717  57.4913287  61.1884303  30.9493362
  57.5708063  62.3303789  31.9285947  73.7854940  46.9829036  40.8806186
  72.9582079  46.7765656  40.3758991  73.4326129  47.5542318  41.5702289
  71.8059598  47.7305061  33.1226244  72.4668326  47.8976116  32.4409287
  72.4192532  47.3340008  33.8294497  67.9128362  44.0998906  36.6970598
  67.0522499  44.1186932  36.2319835  68.4676572  44.6565530  36.0753171
  67.7767810  65.6139150  33.6778491  68.3348339  64.9582736  33.2257520
  68.0652646  66.3939556  33.2757881  74.6269415  50.2136821  49.2369733
  74.1454563  50.4799086  50.0727988  75.4696818  49.9333275  49.7033885
   0.2657917  49.4515518  39.0456748  -0.4079002  49.9603639  39.4478797
   0.4211713  48.6849730  39.6437007  66.3777400  57.2398913  27.5297321
  66.3533735  57.9169060  28.2326899  67.3355412  57.4046758  27.2798576
  74.7821911  65.9497930  29.9209095  74.7760787  66.8847317  30.2011070
  74.3821312  66.0376880  29.0538954  77.8307328  50.2412831  49.9426789
  77.6657856  50.3816297  49.0280503  77.5761568  51.1776228  50.2910087
  64.0502923  50.9541245  30.6790444  63.4122802  50.6452561  30.1000468
  64.3809723  50.1820730  31.1782787  75.3679525  41.0592840  44.7712972
  74.4123324  41.1128906  44.7938380  75.5978872  41.3935591  43.9049382
  64.6785251  38.1878477  29.2084340  65.5413359  37.8372355  28.8948777
  64.3898117  37.4110613  29.8021419  77.8975379  62.1974843  31.3572142
  77.9155938  61.3067157  30.8198919  77.4002751  62.7083343  30.6468660
  64.5076855  47.1064326  40.3849726  65.2389005  47.0791912  39.7316998
  63.9578640  46.4624800  39.8676426  55.3736665  57.6076945  31.4994085
  55.9715536  57.0846738  32.0100861  54.5356846  57.5271025  31.9833867
  64.7313080  48.6062206  36.0400887  64.1970867  48.6246925  35.2477265
  64.9347293  49.6058586  36.0787970  62.6505899  37.4593829  20.8941964
  63.2993936  37.6481487  21.5817168  62.2491723  36.6671021  21.2203207
  67.7494522  44.6529725  32.8932101  68.4562261  45.0705232  32.3360333
  67.4927456  45.4695371  33.4236584  67.6534279  40.2206109  50.0768970
  67.0835217  40.1102989  50.8250469  68.3588985  39.6118773  50.3999532
  56.5279304  56.8544451  22.7126579  56.1407769  57.5156816  22.0826514
  56.8883747  57.4785990  23.3688833  78.5566631  45.5466354  36.0308066
  78.5796163  46.4700802  36.2431465  78.9482328  45.5671438  35.1080104
  75.5935778  44.0599637  38.5651387  74.6453372  43.8308751  38.3737444
  75.4669796  44.2890701  39.5189282  52.0296115  61.9258831  54.8393804
  52.4857159  62.5414103  55.5158748  51.5430603  61.4050777  55.4062235
  64.1710608  56.5055474  34.2900053  63.1984408  56.5169148  34.4600366
  64.3044489  57.4807488  34.3993158  59.8220840  60.5489876  38.1107744
  59.0013509  60.7787563  37.5577053  59.5727519  60.9540878  38.9703085
  71.8584449  45.9470090  39.1916839  72.2282649  45.1609767  38.8056187
  71.4589460  46.4181286  38.4288803  69.4887503  39.8971726  33.2827754
  70.3367834  40.1193436  32.8127089  68.9106699  40.5545500  32.9110890
   9.3157026  46.8862933  49.4708267   8.9334253  47.2131061  50.2927428
   9.3604201  45.9436258  49.6143572  65.1773525  65.4126438  32.3786120
  65.5928587  64.5429215  32.3658222  65.9365948  66.0110672  32.4266578
   1.4942800  55.9433646  30.5539491   1.1023689  56.1430395  31.4505467
   0.7955238  56.3222807  30.0291466  77.5802410  53.7806681  47.0066014
  76.9347777  54.4556155  46.5666731  76.8488085  53.1092591  47.2085303
   2.8477718  38.9017606  37.0116612   2.2114518  39.6029648  36.6592975
   3.0268854  39.2241713  37.8986684   7.9038804  58.7801062  27.1601094
   7.2279811  59.0248114  27.8198656   8.3391304  59.6469869  27.0367585
  51.4218415  66.9027285  43.3490159  51.1349791  66.8228167  42.3775902
  51.1043801  67.8301926  43.5061753  58.9823611  59.8529536  34.2395637
  58.1317644  60.3365417  34.4006833  59.6334132  60.5771365  34.2923492
  73.2388395  62.2106888  36.6547250  74.1058637  61.8625443  36.2427259
  72.7228739  62.4349769  35.8569487  75.7826354  59.1230910  42.0348135
  76.1867728  58.6947219  41.2203121  75.4689641  60.0053994  41.6863054
  63.5285588  53.8193264  50.5663390  63.9157797  53.7193045  49.6537621
  62.5839151  53.8666205  50.4012056  67.8865545  62.3745847  40.7538757
  68.6543379  62.2974853  41.3087884  67.2224637  62.7716449  41.3888527
  78.8476120  67.4569511  45.0444762  79.4732728  67.5702776  45.7607309
  78.3116601  66.7495031  45.4394101  58.7466029  72.9836299  25.6926275
  58.4297782  72.0742358  25.6815683  58.2246075  73.3802762  25.0242033
   0.4578923  64.4462245  39.0678972   0.4806882  63.5516892  38.8354550
  -0.5015189  64.6222765  39.0131278  66.9413317  69.1132808  36.4584825
  65.9735266  68.9547699  36.2321222  67.2904570  68.1922324  36.4295878
  69.0925954  70.6491819  33.2151582  69.6446737  70.6139890  32.4366083
  68.5977223  71.4985140  33.0073368  16.6371040   3.1731598  47.7321658
  15.8755647   3.4335430  47.1419924  16.3757171   3.6149750  48.5164495
  21.6748578   0.1008756  29.3634924  22.2255635   0.8411811  29.1785139
  21.0913578   0.5015204  30.0815300   2.3630335  61.8557882  25.7337787
   3.0750684  62.3936595  26.1781952   2.4558399  62.2005811  24.8527175
   8.5459781   7.7499269  33.7909528   9.0850256   8.5372274  34.0046496
   9.1066697   6.9775844  34.1269953  72.4034551  61.7962484  31.0300523
  72.9474123  61.7262505  30.1911864  72.1638402  62.7690278  31.0409629
  28.0058655   2.7222154  20.8717959  28.6879983   3.3483562  21.2090509
  27.2993770   2.7992035  21.5550229  62.6453308  68.2847407  33.0231905
  62.7778578  67.8207717  32.1791328  61.7733407  67.9833895  33.2555713
  31.3481166   0.0886763  24.3854167  30.4753911  -0.0680061  24.7566187
  31.1974618  -0.0430790  23.4527681  63.8212346  70.4357017  42.9965037
  64.1099861  70.6095215  43.8718407  64.5609813  70.6548398  42.3854489
  75.3921833  55.5978064  37.9962292  74.6865869  54.9327114  37.8429264
  75.8897151  55.2458235  38.7305242  67.7200027  76.1202331  44.2968634
  67.6719087  75.1204232  44.5536091  67.2376259  76.0831855  43.4665930
  73.1541225  67.9848931  46.0334882  73.3025493  68.1845317  45.1166507
  73.4378009  68.7391095  46.5178367  28.7432642  -5.2970327  35.6804581
  28.1219625  -4.5118888  35.5475023  28.5946384  -5.7759249  34.8493993
   3.1111651  57.6191531  41.7360227   2.7447020  56.8538661  42.2084549
   3.6088228  57.1368700  41.0418262  70.6163448  70.7296196  30.7512642
  70.8801203  71.6133870  30.5005325  69.8581990  70.5862202  30.1252126
  67.1143811  68.2345846  32.6118179  66.9051462  68.6800353  31.7584357
  67.8880929  68.8326968  32.8602323  74.7258884  65.7287274  43.2930217
  74.1012721  65.1344396  43.6865985  74.1673440  66.4432220  42.9178130
  47.0030691  67.4587598  25.4041129  47.7632987  67.9342771  25.7596252
  47.5030746  66.5796589  25.1642992  72.5573490  58.4057360  36.3575805
  71.8819212  58.4634799  35.6582348  73.1215496  57.7496662  35.9438953
  66.8204686  55.9619503  37.6659016  66.9291696  55.3090238  36.9938316
  67.5227003  56.6136305  37.5027876  69.1140993  57.5706781  51.7105224
  69.5826011  56.7988615  51.2539264  68.9007573  57.0452547  52.5547899
  13.5937076   2.2201776  24.6740473  12.6858952   2.0512492  25.0567915
  13.3437123   2.3988541  23.7355677  12.3962021  56.3690270  45.5792975
  12.4191567  57.3014339  45.2293033  11.9601204  56.5541078  46.4832032
  79.3452573  65.4934162  48.7129287  79.5527644  66.3955847  48.3675077
  78.4165519  65.5218080  48.8895271  76.9859351  68.6188961  29.7101516
  77.2379687  68.8612477  30.6181093  77.7834208  68.6700461  29.1929915
  20.3010859  -1.1962526  25.2189159  19.4720667  -1.0635425  24.7250360
  20.0515559  -1.2157207  26.1591239  76.7579162  64.2591975  42.3329694
  76.1433882  64.9916582  42.6555037  76.1926197  63.8660424  41.6309599
   9.3675791  57.8290005  46.9583224   8.8227248  57.2231292  46.3781433
   8.9614380  58.6940462  46.7923754   4.3068929  53.3802440  33.8904406
   5.2425696  53.4272565  33.6582154   3.9837990  54.1968825  33.3634191
  74.4139932  64.2335274  47.8669568  73.7136336  63.5917298  47.6686279
  75.1889713  63.9108282  47.3541955   4.5482489  68.4916980  27.8780472
   4.5575658  69.4285671  28.0933802   3.7707590  68.1928312  28.3727125
  79.1410235  63.6719232  33.3090002  78.7047186  63.0355190  32.6860008
  78.6214539  64.4894556  33.0890221  27.0562790   1.8649305  25.3528455
  26.7756032   1.5444416  26.2235840  27.1368433   2.8199435  25.5077130
  75.1712647  68.2589182  26.6959991  74.3981371  67.6511765  26.8259352
  75.8673910  67.5943469  26.6074897  18.7591859   2.2038528  26.8135604
  17.9611709   1.6123455  26.8131044  19.3963305   1.6322289  26.3690447
  21.4803522   2.8856123  39.8522839  21.9175088   3.3978390  40.6378581
  20.6818528   3.4913306  39.8227799  25.6271227  -3.3826860  29.6726822
  24.6422481  -3.2845834  29.6340647  25.8049643  -2.4159290  29.9419991
  73.9000162  53.3675255  37.5343324  74.1600953  53.1031734  38.4482320
  74.5484682  52.8506689  37.0335216  23.1671790  -3.2778671  37.1499529
  23.1271978  -2.5752446  36.4650363  22.5496552  -3.9288722  36.7851849
  72.0537116  62.0009256  42.1040632  71.7365762  61.5200883  42.9226936
  71.6285926  61.3460246  41.4411405   9.4510357  67.7932552  32.0114235
   9.1129492  67.1628692  31.2582283   8.8880909  68.5500357  31.8464791
  27.3789399  -0.4293970  35.3058984  27.9358509   0.1562001  34.8098163
  26.5976551   0.1369400  35.4379088  19.6540971  -1.3189016  28.0106284
  19.0422319  -0.6492614  28.3634916  20.4774940  -0.9059577  28.3200797
  17.9053699   6.2554068  32.6810499  17.6660168   5.3948679  33.0614181
  18.9075120   6.0166985  32.5037159  76.3319241  68.1996568  41.3633346
  76.2863336  68.7021919  42.2568174  76.0280867  68.9957697  40.8384969
   7.7687944  60.3568983  38.0082203   8.1051522  59.4429467  38.1530078
   8.0270819  60.5014158  37.1372225  68.8118522  64.6515479  39.6998326
  68.3431799  63.9495747  40.1777750  69.5776936  64.1133941  39.3694796
  69.5101164  64.9786861  36.4898177  69.5704941  64.3077966  35.8305950
  70.1651269  64.5972123  37.1910625  25.4407924  -2.9815716  49.4490059
  25.8605331  -3.5156736  48.7635415  25.6896993  -2.0905628  49.0431218
  61.8501316  62.4746929  24.6282276  61.5150616  61.5456950  24.5547963
  61.9435168  62.5903678  25.6000658  66.6944247  58.0556945  40.2336608
  66.5309460  57.5428619  41.0768584  66.0483835  57.6115923  39.6639900
  64.7204000  63.2618656  38.3596603  63.9245682  62.7147383  38.2097986
  64.4425728  64.1649945  38.0418577  72.3756503  58.3058302  40.2300979
  71.8233756  57.5893158  39.8176378  73.1759818  58.2563933  39.5782592
  67.8335869  54.2004160  35.5578097  68.4320904  54.1421165  34.7904778
  68.1083646  53.4578005  36.1137834  33.8464271  -1.5011606  51.2073573
  34.0797053  -0.7988863  50.6410041  33.4106226  -1.0573042  51.9578459
  57.3841460  56.2596795  32.9152478  57.4834205  55.2881689  33.0450921
  57.8411967  56.5634368  33.7737478  64.5183438  63.2191895  41.0922005
  64.7276116  62.3136627  41.4281428  64.6880555  63.1130564  40.1520631
  60.9809613  49.5747373  26.7773561  61.2002983  49.5398258  25.8373169
  61.3765303  48.7061931  27.0896334  66.2677822  62.8094417  31.2374981
  66.0489682  62.9962975  30.2760107  67.2602041  62.7909338  31.1261496
  52.6422008  54.8040105  28.7302826  53.2890618  55.4504570  28.9457136
  52.9628712  54.4833603  27.8673996  62.3636277  60.6342736  32.9572567
  61.6858337  61.1611428  33.4556093  63.1791411  61.1745171  33.2484495
  75.7164125  57.6403245  32.9562613  75.0105441  57.2563466  33.5049964
  75.1645786  58.2304052  32.3326563  74.0038495  59.0326508  31.4400407
  73.4609201  59.7609774  31.8144538  73.2555579  58.6186144  30.9166623
  66.6203494  59.5836147  28.9580304  65.9407079  60.0817507  28.4862219
  67.2881853  60.3171956  29.0515658  67.5436418  66.7607236  29.4648828
  66.9663082  67.2945942  30.0671621  67.5075954  67.3409918  28.6840210
  73.1499565  67.9626591  36.9689691  72.2157493  67.9270436  36.6269705
  73.4651245  67.1054780  36.8945893  77.4928686  69.3201213  32.3212171
  76.5725421  69.5773469  32.6653813  77.4879304  68.4445308  32.7867376
  71.0705361  64.2460726  23.8238592  70.4680427  63.5897448  24.2039160
  71.0075437  64.9817693  24.5029627   1.2185420  53.9446684  41.1835210
   1.3525124  54.4313176  42.0534389   0.8482808  54.6735648  40.6586167
  71.8537650  64.7247821  42.1688477  72.1115945  63.7725523  41.9878161
  72.1191256  64.7586632  43.1440598  76.6574871  61.3326766  46.0249399
  76.6478837  61.0979366  46.9396011  76.6894582  62.3358405  46.1103078
  61.5684449  66.2905080  27.2989601  61.3082943  65.6037457  26.6805138
  61.8553490  65.8323222  28.0731291  74.0728956  47.1431067  35.3076749
  74.7330524  46.6491138  35.8978431  74.7704228  47.7423630  34.8860415
  76.7444450  62.1380855  35.8312488  77.5960855  61.9527353  36.3234674
  76.6546137  61.2383716  35.4581565   0.8292687  63.8462981  55.0236784
   1.2830810  63.0346819  54.6970271  -0.0838783  63.5072385  55.0284856
  71.3610152  71.3196863  48.9154847  70.4284131  71.0980479  48.8594694
  71.6243148  71.3610081  49.8391514  48.8142423  51.3024555  58.7219229
  49.5499234  51.4455338  59.3397188  48.6527994  52.2441512  58.5006816
  64.0460789  58.2752733  53.0958284  63.4491145  57.8729379  53.7621284
  64.5657874  58.9135945  53.7074926  27.4230112   8.1659708  42.3504992
  28.0948554   8.4412045  43.0071819  27.5733399   8.8422096  41.6662956
  68.0835346  64.0476852  29.6794712  67.8876110  63.9538028  28.6853353
  67.9783190  65.0303748  29.6656765  31.6032659  -4.7128196  32.1859326
  30.8271642  -4.1828215  31.8565972  31.1338795  -5.0922138  32.9681144
  73.1879146  68.1922316  33.9737713  72.4154696  67.8822321  33.4379615
  73.3398591  67.4024842  34.5109625  67.0698843  56.8841434  42.8001522
  67.4518886  56.0287927  42.9281870  67.8520190  57.4789000  42.9257845
   5.4743720  69.1666031  22.9808113   5.1376046  69.8146885  22.3220699
   4.6136969  68.7727009  23.2425016  13.5108715  69.6307207  15.3303523
  12.7272894  69.1818892  15.6798702  13.8227528  70.1857979  16.0560724
  67.8370326  58.8605427  34.8046314  66.8515537  58.6365848  34.6973071
  67.7234383  59.7860114  35.0870982  65.3340945  60.5522556  41.0371031
  64.3957016  60.2855936  40.8017718  65.8064159  59.7821513  40.7074181
  69.6530257  62.6189786  34.6494524  69.5439318  63.0598233  33.8006000
  70.5154723  62.1997997  34.5193727   0.2184967  58.4713132  47.4120155
   0.8798283  58.6233251  48.1188175  -0.5774579  58.2468186  48.0104198
  27.1007842  -4.3989933  47.6247172  27.8535759  -3.7926993  47.8328636
  26.7538993  -3.9650923  46.8223671   1.4290621  65.1473033  27.7574360
   2.3636929  64.9650847  27.9611021   1.1325248  65.4047158  28.6584688
  77.6424128  59.2594876  37.7255599  78.2595029  58.8275380  38.3624245
  77.9373457  59.0253618  36.8891030  22.9232074   4.9867189  52.1511966
  22.6555909   4.8400966  51.2370126  23.3151888   4.1103273  52.3596924
  62.7307017  69.5362109  36.4259386  63.5431577  69.0750247  36.0815231
  62.6842437  70.2942011  35.8500126  76.0393275  59.5089476  35.2023525
  75.9866977  58.7936341  34.4977291  75.6009815  58.9605990  35.9069903
  67.8314613  73.2975608  44.6637344  67.8140581  72.7347582  43.8599380
  68.6364825  72.9705313  45.1086809  63.3277900  56.6574090  40.4167935
  63.4566661  56.6647097  41.4065477  63.0454863  57.5990647  40.3542362
   5.9800394  59.2861484  29.0992295   5.3598788  60.0340413  29.2872376
   5.3515642  58.5384391  29.2011132  76.2012095  51.2661709  30.5767288
  77.1251587  51.3427094  30.7194113  75.8771829  52.1711939  30.7975553
  70.7240400  52.3552404  40.4246986  71.1266381  51.4874527  40.4713792
  69.7929459  51.9681066  40.2233640  24.7271200  11.3674159  19.8069897
  24.2122681  11.3072867  18.9710523  24.1936414  11.8209503  20.4172163
  34.0055023   0.1381436  17.4423003  34.3434081  -0.7108326  17.0364654
  33.0944504   0.1480216  17.0799896  15.1813436  67.9457858  23.8423037
  14.7850055  67.7111796  22.9662456  16.0056722  67.3912540  23.8052164
  53.3077283  38.1545657  80.3189588  52.8387675  38.7252380  79.6779351
  52.9655018  38.5004406  81.1696359  40.9038102   2.8511794  33.8258200
  40.5455186   3.7099251  33.4962179  40.0786859   2.3105791  33.8450584
  28.8138474   1.6169903  31.1809973  28.6969124   0.6945627  31.5061370
  28.4141927   2.1551745  31.9004859  15.8326333  61.9578269  13.0016782
  16.1714412  61.8606787  13.8945841  15.7737610  62.9367607  12.9700635
  32.7980668  -2.2205234  21.1221650  32.4018404  -3.1215352  21.1061495
  32.0149664  -1.6661191  21.2621697  20.3060123  71.0798477  25.9501412
  20.0700513  70.8179934  25.0230558  20.8689083  71.8623739  25.8167693
   2.0481554  64.7866382  33.2020469   1.8827405  65.5721783  33.7379164
   1.2219163  64.3537475  33.3306742  32.2660676   6.2626318  23.8948142
  32.7815131   5.4651802  23.7675732  32.0433160   6.4947326  22.9704239
  48.1895048  41.3354652  82.3064783  47.2689955  41.3090972  82.3347814
  48.5098163  40.6329898  81.7078777  47.7825452  38.5659263  83.7590562
  48.3553782  38.8532968  83.0337960  47.5009566  39.3772634  84.1418002
  38.6917921   3.2976880  25.4424399  37.8848441   3.5465941  24.9865080
  39.3589907   3.6812848  24.8682628  53.2818187  24.1537009  83.8366063
  52.8901457  24.1205295  82.9098535  53.7906348  23.3132976  83.7302925
  29.2922786  11.7048943  22.3523127  28.6298842  11.8400327  23.0719169
  30.1202428  11.6788607  22.8680002  57.9510928  28.6515458  78.1107086
  58.1159671  29.0601549  79.0238056  58.2555393  27.7474772  78.4092712
  26.5891950  -2.0312110  25.1004208  26.0303447  -2.6705630  24.5789486
  27.1417323  -2.7157860  25.5977732  74.9901291  70.1925189  28.5336507
  75.9230587  69.7608553  28.7759076  74.7930663  69.6400160  27.7500233
  26.0948334   2.3148969  22.8227596  26.1283273   2.0245841  23.8010299
  25.8240827   3.2139807  22.9453711  37.3135096   5.8690382  29.6482778
  36.4350480   5.5800134  29.4438005  37.8997188   5.1474390  29.2378105
  44.7265202   7.6217685  23.4332782  45.3195113   7.8802478  22.7156605
  44.8420802   8.3959493  24.0106159  42.7835059   4.2801980  26.6512739
  43.4081495   4.5362535  27.3493145  43.0796773   3.3524734  26.4758670
  42.0906128   0.0386072  24.6437255  42.2544788  -0.0489803  23.6539754
  41.9840184  -0.8551235  24.8947948  53.7083995   4.0099077  21.4585105
  53.0668257   3.5456513  20.8802497  53.1129993   4.3799427  22.1074206
  42.2805465   0.1268957  21.6501893  42.1864953   1.0743875  21.5912303
  41.5474518  -0.2197174  21.0875643  48.9399419   9.4893004   6.8455229
  48.0878834   9.9944450   6.6379701  48.9276672   9.6153677   7.7881891
  42.4239776   3.5947224  18.6077824  42.8558258   4.2533688  19.1983644
  42.1751585   2.8969523  19.2515458  36.8400460  -1.6921297  40.4773462
  37.0498612  -0.7764162  40.3731194  37.1638677  -1.9572818  41.3572134
  47.1440343   2.2092899  22.6255858  46.3287097   2.1885853  22.1256906
  46.7860799   2.4105056  23.5101208  44.2076336   9.9880119  11.5314494
  45.0649607  10.2728643  11.1963119  44.3820939  10.0568988  12.4887005
  25.9016422  68.6714268   5.7856836  25.5644294  68.6881925   6.6910071
  26.7262282  68.1013738   6.0174257  31.2618783  71.3652741  26.0622491
  31.3999123  72.3091769  25.7280085  30.3147016  71.3229293  26.1583950
  66.4557624  40.9301960  75.8920590  66.7376155  40.5504158  75.0193588
  65.9020118  40.1137753  76.1080659  69.6924778  40.3927999  69.5263583
  70.4199088  40.1632276  70.1440518  69.6520387  41.3514751  69.6095749
  47.0827470   6.6164372  39.8908544  47.3142159   5.6731248  40.1284800
  47.5869871   7.0866357  40.5923094  73.4751763  32.2341145  71.6233440
  73.1376822  33.1864958  71.8233815  74.3833950  32.4472701  71.3797913
  32.5393849   5.4373893  13.9475890  33.5170183   5.4392076  13.9973351
  32.3985503   6.1837837  14.6345535  35.3861436  12.2518612  28.6998504
  35.4251856  11.6351925  27.9681939  36.3657712  12.3301456  28.8826145
  46.4497689  10.6047412   6.7183770  45.9355393  10.6480722   5.8790681
  46.3628610  11.4811086   7.0842523  29.7311623  68.9043940  26.5296430
  28.8119677  68.5200901  26.5775944  29.7669830  69.0182754  25.5753625
  38.7795642  10.0905933   9.0628990  39.2643183   9.6549625   9.8070432
  38.4681447   9.3017093   8.5547482  38.1164544  10.4405747  24.3916285
  38.6458973  10.6146382  25.2140106  38.7514810  10.1349953  23.7627502
  28.6523100  76.4504715  33.4568099  29.0831632  77.2907411  33.7109593
  29.3115483  75.7756825  33.7176810  44.5482504   3.3024030  36.5155332
  45.4179168   2.9868394  36.3323151  44.1948454   3.4266570  35.5899101
  29.0157337  75.4891065  29.8119059  29.5127154  75.9169040  29.0778022
  28.7298045  76.2873209  30.3094093  56.3989564   9.4637979  24.1074587
  57.0183067   9.1832680  24.8036378  55.8334006   8.7343427  24.0475229
  51.2203956   7.0258529  31.5870731  52.0558816   6.9429248  31.1356916
  51.4979553   6.9543466  32.5429596  19.6183325  70.9921134  15.5071436
  19.8275103  71.0834060  14.5669272  19.8304663  71.9344793  15.7810570
  34.9168544   8.0768605  31.0088966  34.7743717   7.7658779  30.1203891
  34.3604526   7.4194321  31.5348613  52.2956540  13.9976471  21.8888754
  53.2086150  13.5823785  21.9383884  52.4618723  14.5254280  21.0886973
  35.3248425  74.9325084  17.3563819  35.8536522  75.0466986  16.5258540
  34.6035976  74.3857399  17.0540769  14.4347417  68.1784540  32.1036605
  13.9677181  68.3031421  31.2388082  14.6393705  67.2314893  32.0212325
  62.6865540   6.5427967  19.8976778  62.5349843   5.9769214  19.1073344
  63.5766095   6.1202759  20.1469977  50.0225082   2.0732155  14.1619941
  50.2603655   3.0627397  14.0716760  49.2530267   2.0461763  13.5490081
  23.7820569  75.3032742  35.6914073  24.1522866  76.0001955  36.2651880
  24.3903879  74.5653820  35.8182564  34.4959817   3.7021036  26.1280275
  34.5251626   3.0095717  25.4145718  35.2776114   4.2174294  25.8576690
  36.7670950   8.2917059  37.5247554  37.2092201   7.5979325  38.0425272
  37.4643252   8.8559262  37.2677555  27.5897311   9.4862300  21.3689106
  27.8906376  10.4077069  21.6157730  27.1387384   9.2682146  22.1820939
  27.3249522  11.8645852  19.1838642  26.4407015  11.6415674  19.5037723
  27.3229634  11.4425617  18.3182730  42.1558909   3.7025444  30.5398870
  42.9027828   3.7771600  29.9169127  41.5067727   3.1908324  29.9507860
  42.9735866  11.5939597  17.8789449  43.9107530  11.9370016  17.8514125
  43.1826877  10.6166628  17.7086250  41.3161539   9.2259813  28.1970717
  40.7031068   9.7247475  27.5956131  42.0911307   9.1327478  27.5547719
  58.1538511   5.6358679  26.0083409  57.2349176   5.7656655  26.2778974
  58.2963532   6.3025812  25.3135268  47.9298112   7.8752077  30.1808753
  46.9598567   8.0209695  30.1594068  48.0765820   7.8448339  31.1654676
  37.4046098  -0.3538724  18.6033639  37.0828714   0.2056908  19.3379338
  38.3364363  -0.0470893  18.5456042  28.2416192  74.2516757  16.8178132
  28.6474039  75.0298790  17.2281737  27.9552639  74.5892184  15.9678032
  33.7631893  75.2170237  13.5849493  34.1288112  75.3313821  12.6651784
  32.8679014  74.8873671  13.3890174  33.4330022  74.1046621  26.8612303
  32.6604168  73.8384952  26.2466545  33.6416712  74.9545442  26.5364141
  61.3079685  10.6266996  30.7888648  61.8461394  10.6851382  31.5627785
  61.8340097  11.0940042  30.0969191  26.3489113  71.2892821  21.2383033
  26.7357095  72.2033535  21.1566262  26.9705462  70.8199636  20.6630602
  20.2524019  74.0939458  11.6427559  19.3656671  74.1513384  11.3117301
  20.7832448  73.9210251  10.8427970  55.8783825  11.7040252  17.2955785
  56.3691410  11.4650698  16.4822125  56.5606600  12.2834473  17.7272600
  51.8419720   7.5223166  23.3723308  51.2560630   7.0912166  22.7217871
  51.6423565   8.4711909  23.1670938  32.8066679  70.3697607  24.2678248
  33.2982132  69.7467213  24.8913217  32.0931120  70.6356525  24.9428807
  47.3154893   6.1237670   9.8161544  47.3136964   5.1508213   9.4623649
  46.8555056   6.5396678   9.0344225  37.1014317  -2.9478067  23.4917368
  37.2795831  -3.2025842  24.3824292  37.9724375  -2.5399655  23.2822932
   9.6468359  69.7641798  22.8149464  10.0695594  70.6606795  22.9873805
  10.4502723  69.1968740  22.8355773  56.8557161   8.6260287  20.5261341
  57.5645503   8.8237635  19.8629356  56.7433480   7.6693737  20.4415592
  39.5443519  12.8607040  16.1091225  38.7486394  13.4373649  16.3868336
  39.1207751  12.2162986  15.5548255  65.5188266  37.4837038  78.3690309
  65.4315202  37.2998221  79.3265097  65.3793613  36.6316083  77.8827417
  43.4209407   5.3036141  23.9195467  43.8970266   5.0357039  24.7246787
  43.8078803   6.1927905  23.7760490  53.2644924   8.5572888  25.9945378
  53.4095373   9.4087227  25.5565544  53.6367599   7.9822780  25.3227164
  47.7126546   9.2417577  24.1581030  47.8723614  10.2400209  24.1703751
  47.0974026   9.2038891  23.3783367  26.9971724  67.7103295  30.7195023
  27.6953317  68.3304151  30.6674872  27.3655959  66.9823791  30.1225120
  34.8072990  78.5878963  21.8884061  34.6204755  77.6559571  21.8027645
  33.9001649  78.9761385  21.8227488  55.1662445  10.9657716  19.9092148
  55.9031831  10.4846425  20.3530362  55.3673803  10.9161116  19.0376627
  39.8159999   7.4288188  13.0651072  39.4848281   7.0272974  13.8915772
  40.4097750   6.6906976  12.7408487  42.8803530   4.6449157  21.1893924
  42.1290404   4.0316509  21.5091436  43.0892659   4.9806197  22.1611482
  68.2312389  34.4244990  77.1015297  67.2834062  34.7953729  77.0399402
  68.7162267  35.1911067  76.6904025  61.1716722  28.1200528  79.9671265
  60.4436737  27.4477103  79.7624207  60.7108817  28.8962049  79.6981809
  23.7576739  70.8702577  21.1323710  24.7202391  71.2323553  21.0784528
  23.8927132  70.4718229  22.0106487  63.3945839  14.3234758  26.0145929
  63.8963049  13.7779088  25.3884169  63.3050362  15.1617234  25.5049588
  39.0420303  13.2917533  44.4153200  38.9055386  13.0291696  45.3545925
  39.3298209  12.4080242  44.0428109  43.6834115  11.2761786  21.5065090
  44.5878044  11.4190065  21.1640470  43.3908251  12.2451822  21.4627945
  37.8499308  14.8247986  30.4410278  37.7796668  13.9067839  30.8406505
  36.9253302  15.1400946  30.6325465  44.3070826  16.8905504  17.4482148
  43.3758946  16.6007192  17.5761703  44.8185176  16.2371506  17.9106258
  60.6181433  38.4610257  79.2442745  60.0159252  38.8985184  78.6350841
  59.9903090  38.1321788  79.9329769   7.7374090  64.1306654  42.6099247
   7.6244593  64.9262980  42.1021003   7.5349061  63.4660423  41.9087591
  50.6913242   7.1460221   8.7030439  49.9952008   6.4927398   8.7941368
  50.8052637   7.2105925   7.7557170  43.6143501   3.0154881  33.8526233
  43.6166347   3.6289777  33.0919112  42.6631983   2.6529811  33.6968822
  30.3658061  71.6600948  33.2340417  31.0644988  71.2730749  33.7665331
  30.8184375  71.7459724  32.3274822  29.1542583  71.3250963  13.7290653
  29.3951017  70.3868970  13.4836905  28.5724175  71.2007621  14.4811370
  32.8366255  20.3092332  28.4171557  32.0810611  20.3292208  29.0376668
  33.5485524  20.3813093  29.0458879  20.5343838  74.8230818  14.1018076
  20.3995228  74.5290278  13.1594879  20.1788527  75.6956948  14.0851394
  58.9992304  11.1213003  29.3465442  58.2099736  10.9060505  29.8463791
  59.7239754  10.9474227  29.9927931  29.5484848   8.2917329  19.9951337
  28.9411669   8.7589534  20.6927508  28.8995374   8.2266605  19.3110239
   8.1429518  66.4117972  25.5643229   7.7477008  67.1288624  25.0199542
   7.2907746  66.0850211  25.9257588  38.1143283   5.8554243  23.3082035
  38.0123813   5.3335364  22.4432312  37.6502417   6.6502017  23.0404299
  46.5215330   8.8097105  16.4413740  47.0452153   8.5051981  17.2286923
  45.6213646   8.7648996  16.7242553  19.5308940  73.9418175  30.5498007
  19.5793462  72.9718120  30.5669390  18.6300359  74.1454935  30.7512147
  50.9987623   6.5674241  26.2151515  50.8608212   7.3847160  26.7329676
  51.1648445   6.9713796  25.3017206  41.8250354  -1.6059640  39.4465830
  42.3226862  -2.4296513  39.5316110  41.4076247  -1.7518074  38.5186908
  18.8154866  73.1216908  23.6408273  18.1116870  72.5103616  23.3638259
  19.1722885  73.4538196  22.7800558  40.1352592  -1.1378751  20.0307599
  40.4918413  -2.1139748  20.0177416  39.2117816  -1.3417511  20.2529311
  45.1149220   9.0136127  29.6573533  45.4281643   9.8784044  29.9977592
  45.2980745   9.1297335  28.6579986  52.7365462   9.6010705  21.0253127
  53.5181356   9.7255014  20.4256805  52.2076547  10.3567939  20.6714912
  35.8871289   2.4557121  45.0369920  35.2060180   2.9304472  44.5804892
  36.2660307   1.8272164  44.3705192  13.0751600  69.9799565  41.6555959
  12.8127635  70.8729656  41.9643677  12.6794230  69.9701959  40.7191590
  35.6788111   7.6032142  15.0620591  36.2874991   7.7828246  15.8122148
  35.3265780   6.7231783  15.2845024   8.2111566  69.5471024  26.7609007
   7.7496994  70.4622089  26.7239564   8.2186972  69.2792662  25.7935850
  46.3802632  14.6772753  29.1641073  45.4758775  14.9417792  29.3473772
  46.6139285  14.1865934  29.9409283  39.7123220  -0.2964582  16.0786619
  40.4378826  -0.1619077  16.7660144  39.3751094  -1.2014774  16.4033613
  53.9539097  10.8265442  28.9554380  54.1872044  11.0618344  28.0304652
  53.5213645   9.9619362  28.6972219  56.3441288  37.0580547  79.1051245
  55.5154288  36.8107958  78.7309303  56.3124082  38.0330890  79.1438693
  31.1803604  73.9966887  18.7632812  30.5924214  73.3109305  19.1771033
  31.9740162  73.8839819  19.1916608  39.0987835  -0.0741661  29.9800920
  38.8479963  -0.9549383  29.6227292  38.4137907   0.0156352  30.6783375
  46.2267256   9.0230599  21.7739159  46.1031283  10.0310579  21.7164100
  46.6379052   8.8496745  20.9005728  45.0835319   5.9461177  17.8101815
  45.6344404   5.5260300  18.5223910  44.5338273   6.4832717  18.4407146
  38.1441285   8.9745981  28.3650150  38.7068387   8.8139317  29.1772412
  37.4619327   8.3019066  28.5080148  57.3204526  34.5379162  82.9884114
  56.8832885  33.6621112  82.9751197  58.1413030  34.3030016  82.5874222
  49.6052415  21.2076357  19.9761628  48.9777898  21.9605289  20.1405153
  50.4563851  21.6232258  20.2264617  45.5458259  11.7698292  30.6864118
  44.7893012  11.7532173  30.0927343  45.0686278  11.9004501  31.5786558
  46.7984095  13.7903047   4.7591901  45.9767371  13.3853323   5.0205791
  47.4500601  13.0385039   4.7474946  13.9447688  68.9072541  25.9275632
  14.5185345  68.5801234  25.2556008  13.0708726  68.5463863  25.7180202
   9.8020769  39.6371798  71.1858910  10.6601866  40.1793196  71.2271095
   9.6506655  39.6074946  70.2331944  27.2606178  73.7444435  19.9009560
  27.1273343  74.6487748  19.4972339  27.6276920  73.9864267  20.7512395
  23.5806816  74.5430503  26.8362574  22.9692858  74.2379312  26.1406793
  22.9699806  74.5596401  27.6351141  62.8871412  12.3576641  21.5347191
  62.9685463  11.4277522  21.9035146  62.3314091  12.1114018  20.7265978
  44.8317919   7.2776154  26.7164977  44.7350465   6.6100883  27.4643224
  45.0156771   6.6048754  25.9930426  49.1547017   3.7771560  24.0402991
  48.4937530   3.0997181  23.8242171  48.7444538   4.2522730  24.8046679
  40.5679380   4.4640856  23.8911329  40.0460313   5.2657320  23.7774502
  41.4194125   4.8913601  24.1737103  44.7844268  17.5746375  23.2453316
  45.5930617  17.1892759  22.9374920  44.2064917  17.4443776  22.5106398
  38.8833865   6.9315687  26.4632855  39.6901692   6.8010875  25.9720712
  39.0360118   7.7991304  26.8893012  56.4141134  10.2839367  30.4580685
  55.6977989  10.4842909  29.8483736  56.0750613  10.4160829  31.3265956
  51.4648770  13.3809306  27.6284343  51.8685270  12.4959533  27.4193380
  52.1428745  14.0142434  27.2258796  40.2929599   1.2094662  26.4966811
  41.0488512   1.0345437  25.9235939  39.8928526   1.9561629  26.0205497
  54.7225443   7.2097668  24.1465645  54.8554147   6.2377765  24.2213922
  53.7688668   7.2096857  23.9144991  30.8988515  66.5789007  27.0295108
  31.6855278  66.8777823  27.4889646  30.3994926  67.4451387  27.0461198
  58.9262839  11.1577730  26.5925915  59.7978185  11.3683053  26.3224334
  59.0409496  11.0937832  27.5772229  26.4261643  76.8203016  34.9484532
  26.7065695  75.9490006  35.3133511  26.9525216  76.8170351  34.1147315
  20.4127260  70.1402038  23.3733271  21.2585874  69.9458923  22.9487526
  20.0652592  69.2080524  23.3938619  35.7779087   0.7444592  29.4758085
  35.0830647   1.4132477  29.5067988  35.3992113   0.2699878  28.6234697
  39.9170276   9.4682074  21.8979192  40.7832836   9.0594561  21.9240542
  40.1992709  10.3944573  22.2927422  15.0848414  51.1510624  71.5400272
  14.2898692  51.7076044  71.7620014  14.9962492  50.4807650  72.3011675
  45.2618791  80.5860277  22.8620167  45.1595505  80.2037290  23.7852118
  46.2470728  80.6073414  22.7871330  17.0839814  72.9034660  17.2108705
  16.9318111  72.3784490  16.3995317  18.0560247  73.0215380  17.1770617
  27.3219327  75.5193804  26.2913689  27.0481739  74.9517537  27.0456169
  27.4168722  76.3694744  26.7864019  42.5080064  11.4888384  15.0335116
  42.6464824  11.6776862  16.0033551  43.3256438  11.9331066  14.6737953
  10.5327924  62.4795279  26.7077604  10.0532155  61.8502372  27.2686562
   9.7678351  62.9635118  26.3123143  38.8082029   0.3613952  22.5994217
  38.4437092  -0.3388720  21.9498891  39.4077425  -0.3011692  23.0717379
  54.3629161   3.0265413  37.1920583  53.6292418   2.4723772  36.8885308
  54.2510122   3.8506213  36.7104126  21.2520898   3.5973380  24.3803910
  20.8920037   2.8016469  23.9314079  20.7040868   4.2610336  23.8727340
  49.8647522  11.6312281  31.0752378  50.8167952  11.9429199  30.9909566
  50.0699241  10.8376192  31.6341911  25.9513653   7.9443987  31.9224738
  25.9456878   8.8517601  31.4925240  25.9692991   7.3635357  31.1297790
  33.8528062   2.5881383  29.9578924  33.6800098   2.5368451  30.9228855
  32.9453849   2.4431523  29.5816655  29.7796299  -3.1576037  30.9797365
  29.0813942  -2.6697615  31.3833212  30.2934645  -2.4149260  30.5646620
  40.7595112   5.5518260  17.8302561  41.4343111   5.0098969  18.3069163
  39.9688403   4.9757899  17.9839800  37.5138176   5.0162292  20.7553839
  37.8826944   4.2786823  20.2465071  37.8778721   5.7807297  20.2900583
  28.0840450  66.0745187  36.0850673  27.7002790  66.7993354  35.5085796
  28.4599974  66.6580536  36.8294483  33.6231005   8.5886833  17.6358482
  34.1825587   9.0709898  16.9763181  34.2488323   7.9211029  17.9698266
  58.5270453   5.7501840  22.8215330  58.3062919   4.8544054  23.1511079
  58.5688041   5.5699305  21.8475261  52.7617639   8.8099745  12.4760987
  51.8434656   9.0581626  12.7190475  52.5190068   7.9381447  11.9931030
  40.5253827   1.9553899  28.9871938  40.4473241   1.6076168  28.0339610
  40.1065266   1.2026101  29.4813234  56.3073277   5.2048386  43.0450518
  56.3303792   5.5873636  43.9281299  57.0232149   5.6650473  42.5162730
  33.5213649  10.5159205  15.3822761  34.0151534  11.3748962  15.5229050
  32.8311150  10.6563072  16.0665885  47.7069437  13.2791487  31.3105888
  48.5219535  12.7364123  31.0909041  47.0228287  12.6784099  30.9313765
  46.4680442  25.1525028  20.2959140  47.2248607  24.5537486  20.3878327
  46.8622005  26.0239645  20.3655475  38.7800610  13.4732792  21.2659571
  37.9374667  13.5981822  20.8625647  39.2746332  13.0922530  20.4842492
  57.3823970  11.5258122  14.6600450  56.6232753  11.1213646  14.2316151
  57.9690875  10.6788949  14.6531089  72.1890007  22.8433275  18.9328054
  71.5386384  23.1039203  18.3017084  72.1080967  23.4206041  19.6980464
  65.3048377  17.9073114  27.0310228  65.9492143  18.4206952  26.4735236
  65.5144803  18.3325776  27.9073346  37.9959696  19.1551635  15.1137663
  38.7110225  18.5518477  15.4944932  38.5358804  19.5697463  14.3789120
  35.3683373  79.9702663  27.1871708  36.0701930  79.2781852  27.0797113
  34.5847633  79.4145168  27.3985739  61.8794480  14.4271500  28.6951715
  62.0759933  13.5032136  28.8724987  62.5024810  14.7241554  28.0006285
  59.0971726   9.4857745  18.9911949  58.5733280   8.8204031  18.4770018
  59.9745419   9.2423673  18.8567567  51.3635522  19.3933787   8.8820994
  52.1193184  19.3307645   8.2527301  50.6284927  19.3599523   8.2335038
  53.2589053  11.8016600  25.9379887  54.1997608  12.0196722  26.0152302
  53.2122923  11.4951020  25.0024083  29.4902098  72.4327205  20.1013068
  29.3732693  71.4767354  20.0939757  28.6151619  72.7654271  19.7750976
  11.8023884  45.5404075  77.1726744  12.2550499  46.4228027  77.1930054
  12.4511157  45.0752331  76.5806416  46.1908333  76.2876884  26.4766988
  45.6927462  76.3975595  25.6356528  46.3912445  77.1639286  26.7815607
  54.5748487   8.7137451  14.9710575  54.0428235   8.6143941  15.7594308
  55.1542046   7.9180175  15.0297528  49.2288189  13.5729358  25.9940819
  49.6718175  13.9712649  25.1614957  50.1023624  13.4200675  26.4874341
  49.2498817  17.9756041  20.5272193  49.8499842  17.3540446  20.0472257
  48.6174464  18.1749116  19.8269342  43.0900386  19.1140998  19.3870991
  42.2281963  19.4102982  19.0772976  43.6393321  18.9947250  18.6303563
  64.0573829  13.9132093  16.1309260  64.0496283  13.4767509  17.0027909
  63.1260022  13.7763316  15.8808497  55.7036618   9.5278580  40.7815026
  56.2230150  10.3747160  40.6340066  55.1580076   9.9613175  41.5080674
  37.6177231  19.3183084  18.4455967  37.8955727  18.4105646  18.6300470
  37.0076589  19.4628058  19.2354354  54.9372368  12.5303258  34.8968926
  55.9132561  12.3917280  35.1360642  54.9764929  13.5463156  34.9758934
  62.5545184   9.0366140  38.2661612  62.5391960   9.6916145  39.0080560
  62.9001771   9.5837248  37.5387129  50.8412004  15.8678011  19.7780029
  51.6800580  15.5289118  19.3256686  50.2591066  15.7047745  19.0135881
  57.0228854  25.8237928  13.4282941  56.2151043  25.2832132  13.2767952
  56.7576374  26.6159954  12.8599007  36.4486275  80.3065915  23.3626144
  35.6800139  80.7817883  23.8031846  35.9507702  79.7838575  22.7326425
  56.7164138   8.6459840  33.1045551  56.1555829   7.8329875  33.3538452
  57.3460939   8.6941992  33.8420290  53.2314053   9.3773232  31.9003595
  53.7031134  10.2019104  31.9253132  53.4325517   9.0197290  31.0480484
  49.8180561  17.2864026  23.0740483  50.2586939  18.1045747  23.4169473
  49.7103737  17.5923054  22.1457771  66.6548842  19.1333180  22.9969051
  67.5411773  19.3319041  22.5967978  66.9566544  18.8574964  23.9202239
  52.2372464   7.2561999  34.4417757  51.6814317   7.7451130  35.1201252
  52.4610410   6.4830451  35.0606526  52.4917349  16.3061124   8.1997379
  52.3490684  15.4083531   7.8413483  51.5847434  16.5608273   8.4765437
  25.9030462  72.8529444  17.4876464  26.6027296  73.4636637  17.0861042
  26.2845365  72.8540976  18.3783209  63.5664399  24.6421139  15.9147538
  62.7940157  25.1693392  15.7297543  63.4126683  23.8158660  15.4653345
  57.4710116  19.7898264  20.1565435  58.1956042  19.6816285  19.4318386
  57.4998393  18.8995082  20.5655124  61.8003399  30.5202548   4.1881950
  62.0861550  29.7226329   3.7174424  61.7246844  30.1244274   5.1022717
  60.4901738  11.3640211  23.2614332  60.9294529  11.5677005  22.4500679
  59.5071033  11.4738279  23.0398067  41.3212221  79.0842052  21.4068276
  41.3186764  79.1029931  22.3654945  41.3808754  80.0082439  21.1610082
  49.2926025  23.9851568  20.1095853  49.5138523  24.8631575  20.3515130
  49.5024286  23.9398778  19.1504826  58.2775536  29.0715750  10.2594305
  57.9158732  28.1981478  10.0916085  58.8504609  28.9180821  11.0665352
  61.2523645  17.5816027  14.9715653  60.5136212  17.0403179  14.6537459
  61.6081792  17.9577252  14.1280987  31.9542515  72.0169582  31.1413328
  32.2388148  71.9298998  30.2529736  32.7817787  72.2390203  31.6250586
  52.0813942  21.5230724  17.0803870  52.9915769  21.3314848  17.2572552
  51.9221714  21.2772089  16.1643142  58.5594052   8.3549530  25.3157519
  58.6254535   8.2505219  26.2535521  58.8930757   9.2032893  25.1332067
  59.4292520  21.2810418  15.0642230  58.9611141  22.0620826  14.7178919
  58.6773238  20.6648136  15.0924657  59.0178262  19.3114976  17.9492443
  59.9041181  18.9949152  18.1339562  59.1375471  19.6418593  17.0265637
  40.7108635  18.3285892  30.9294320  39.9462582  18.9104007  30.8288344
  40.2285468  17.5782479  31.5171684  46.1241263   9.9876566  27.3969849
  46.9495849  10.4032485  27.8013354  45.8129815  10.6968956  26.7959263
  60.8467979  15.9921180  19.1534275  61.0369057  16.8776164  19.5181138
  61.7226627  15.5784062  19.4638305  67.2438245  20.0976330  19.7545434
  66.7910987  20.9606298  19.8111962  67.7767055  20.2067968  19.0111111
  55.9584258  17.1097079  14.0936411  55.0090893  17.2371345  14.0812298
  56.2215583  17.2963398  13.1896873  69.2146856  20.4485304  33.3311377
  70.1043089  20.7714968  33.0145565  69.5267858  19.7393227  33.9199763
  42.8892697  20.5684476  30.2508187  42.2111266  19.8795180  30.3393069
  42.8617986  20.9457269  31.1247088  53.5896517  15.3888214  15.1784055
  54.1787803  15.1761691  15.9759719  53.6491398  14.5763593  14.6704986
  49.7302277  14.5357944  11.3032656  49.5686023  13.9395649  10.4833904
  48.8926193  14.9105023  11.3603720  52.8967865  11.0140856  23.2901402
  52.8155581  10.5182738  22.5106000  53.6728995  11.6075748  23.0474538
  43.5555678   1.7316634  26.0073742  43.6707680   1.1150938  26.7629810
  43.0442553   1.2661405  25.3451782  50.5609649  10.1570188  26.1618069
  51.2719844  10.7031069  25.8966112  49.8866865  10.2921853  25.4405331
  61.6075180  13.9601648  15.3910059  61.0572251  14.0404821  16.1921420
  61.0170473  13.6109700  14.7193871  50.1769991  15.2365084  30.0847787
  50.4400759  14.5626513  29.3763565  51.1683695  15.4690661  30.3722385
  54.2566451   2.7387625  27.6912601  54.8455582   3.2643754  28.2519748
  53.6090955   3.4297741  27.4052222  49.7503898   6.5519160  21.8006481
  49.6364683   5.6295038  21.8219327  48.9303944   6.9716247  21.9193140
  62.7215240  14.2047454  12.7443737  63.6554860  14.4483688  12.7403195
  62.5130636  14.4615398  13.6381289  35.4704996  80.2930554  15.4212666
  35.6619306  79.5909978  14.7720521  35.9648669  81.0621956  15.0394789
  53.0289903   4.2981479  17.9044558  53.4297125   4.1647402  18.7744400
  52.4062921   4.9474019  18.0124568  25.5494015  57.2400414  81.8412711
  26.1722442  56.9695072  81.1170038  26.1482489  57.4889572  82.5144781
  55.4928824  22.0011222  20.5396684  56.2487534  22.5320524  20.8594110
  55.9342330  21.3907428  19.8950384  64.6741238   8.6895485  17.2161835
  65.1345402   7.8528699  17.3968453  65.4341032   9.2799984  17.1944924
  63.2671774  17.4917702  29.1555310  63.7912494  16.7266779  28.7716376
  64.0786599  18.0836689  29.2903616  54.7915217  21.0562400  17.3785412
  55.1208324  20.5431819  16.6269632  55.6336461  21.3153480  17.8019606
  44.5239228  76.1277677  39.2179605  43.8266559  75.7715122  38.7096206
  45.1409324  75.3636605  39.2738229  48.6332606  14.2838715  20.7834100
  48.6874073  13.9676011  19.9092836  49.5237628  14.6096743  20.9796115
  53.2455262  12.0492425  17.8100598  54.2395299  12.0002899  17.7203060
  53.0042131  11.4814853  17.0141903  67.9418543  13.5743904  31.6871474
  67.9074602  13.1633680  32.5655141  68.9561322  13.8690983  31.7310445
  64.1749555  17.2310507  22.2909375  64.6923351  16.4321847  21.9282913
  64.1024849  16.9163148  23.2136749  56.7234449  12.8177586  10.6451143
  55.8020104  13.0548345  10.7097319  56.8044729  11.9270764  10.8857015
  61.3151587   7.4113550  32.5692725  61.5242973   7.1879951  31.6549091
  61.2980030   8.3836518  32.4981350  69.5356287  40.7352934  12.3284027
  68.6772335  40.6548068  12.7776921  70.0429531  41.2953230  12.9496319
  55.9004290  12.0026269  25.6388348  56.5108211  12.6553490  25.2988131
  56.4001512  11.1593292  25.3704271  62.1815211  10.9929453  13.5657063
  61.9858314  11.9469518  13.4257413  61.4965482  10.7566053  14.2124901
  73.6448697  23.8522460  22.7155545  72.7151233  23.8495467  22.3693721
  73.6418963  22.9901787  23.1974821  68.8369563  23.4313106  25.6987846
  68.9041024  24.4146310  25.8285310  67.8874239  23.4468446  25.3553146
  53.6577038  10.6997339  10.8990137  52.8676466  11.1513256  10.5053387
  53.2098278  10.0412193  11.4828525  38.4361537  17.9594734  22.1011999
  37.9580958  18.5642022  22.7286273  37.8957322  17.1593895  22.2060024
  47.6515284  19.7398204  14.5650529  46.9858880  19.0636339  14.4831107
  47.8463554  19.9358157  13.6421072  61.5320372  11.8421424  25.6813980
  61.2124335  11.4977020  24.8340648  62.2317531  12.4546780  25.3902460
  38.3181742  81.2019413  21.5692254  38.6088660  80.4031448  21.1210384
  37.7229924  80.8147850  22.2667653  58.6669681  14.1912703  29.8734231
  58.4964340  14.6829985  29.0466459  58.3463008  13.2898106  29.5485479
  41.3251423  81.8407166  35.1379652  41.5035538  82.3320773  34.3108516
  40.4175971  82.2339003  35.3501351  53.2507248  29.1041515  16.0882919
  53.4990674  28.2553272  16.5249723  54.1078863  29.5096803  15.9961457
  49.0682210   6.7922064  17.9038892  50.0061300   6.7803404  18.1256564
  48.8402178   5.8386296  17.9616613  62.3281511   8.8779314  18.2492030
  62.4166177   8.2120679  18.9503195  63.2587441   8.9408373  17.8938125
  71.3489460  12.9958509  20.8349391  70.4466443  13.2759081  21.0693939
  71.4108023  12.2043442  21.4893563  55.4237053  36.0894881  16.0666941
  56.2854051  36.4954767  16.3422911  54.8663777  36.8830190  15.9156877
  62.5933303  19.6678100  22.5750631  62.0782735  20.4246373  22.8709920
  62.3308267  19.0321717  23.3190160  63.7270189  26.0664185  12.8684462
  63.3681771  25.7834791  12.0315066  63.1563679  25.7091691  13.5148175
  61.4017863  14.6249112  22.2980022  61.8757109  13.9167391  21.8453614
  61.8620980  15.4093392  21.9780576  44.9741332   8.6723239  35.6585173
  43.9913221   8.5350895  35.5360285  44.9933989   8.2980051  36.5907481
  60.9856565   8.0983734  21.3381187  60.6691420   7.6742029  22.0902052
  61.6808678   7.6062301  20.9890608  37.2177369  72.2541773  23.9716091
  37.1425207  71.5069407  24.5815602  37.0922361  73.0084432  24.6276419
  39.5670637  79.3115659  35.5685961  40.2184321  80.0270860  35.6056667
  39.8256608  78.8641198  34.7180261  67.2745337  28.3280532  26.6836172
  66.5966438  28.0631237  25.9946483  67.8053207  27.4799686  26.6766931
  67.4375537  33.2290178  22.1203876  67.5177878  32.5316239  22.7828429
  66.5630897  33.5981671  22.3583492  60.7661419  38.2238633  23.9803051
  61.5550517  38.7976856  23.9852283  61.2247392  37.3878706  24.3195824
  68.6701917  26.5247396  16.8722758  68.6403396  26.7906139  17.7533076
  67.9375383  25.8900069  16.7860858  55.4085167  23.8006157  12.4568341
  55.0948431  24.5055619  11.8522552  55.1894399  23.0349020  11.8508579
  77.2826592  29.5710235  22.5146493  78.0415715  29.9549482  23.0541493
  77.1558585  28.7691226  23.0297194  53.4871169  30.0635924   4.1066792
  53.8139160  30.5605280   4.8933965  52.6577577  29.6507188   4.4934175
  73.1373412  27.0720860  25.7117475  73.8039482  26.4725916  25.3818401
  73.2494360  27.8267985  25.0246569  69.1351062  28.3836277  22.5529092
  69.6679372  28.0122224  23.3256080  68.2549304  28.0631963  22.8248225
  61.5460901  27.7670115   9.4792335  62.0516903  28.1616955  10.1959601
  60.8875317  28.5575452   9.3303302  67.9046617  22.1690672  29.7515823
  67.6883617  21.2104549  29.8763356  68.5565968  22.0463284  28.9933898
  60.9182591  28.4230425  15.1074553  60.3699214  28.7043028  15.8529928
  61.7266256  28.9947343  15.2570464  67.1650762  37.4631822  28.7420484
  67.5889806  37.7046644  27.8411597  67.7136332  36.6614695  28.8886479
  71.1323859  28.8666870  19.2400476  71.8657302  29.4723287  19.0119529
  70.3522412  29.3817453  18.8940969  66.3964399  42.9475927  19.4628904
  66.9310555  43.7908584  19.5442470  67.0447560  42.2785939  19.7181486
  75.8439507  17.2873844  29.4898871  76.3268302  17.7138804  28.8032432
  75.3954346  16.5787356  28.9810981  64.0360276  38.6500441  15.7200623
  64.1149193  38.6150361  16.6911626  63.1114277  39.0539036  15.5958247
  71.1704854  39.6288893  16.2421610  71.1547040  38.7533133  16.6798466
  71.8260057  40.1074302  16.8275176  24.2378992  64.9213873  76.1906492
  23.3285332  64.5801785  76.1137344  24.5334893  64.4348418  76.9991264
  75.2257939  17.7177926  35.8810976  75.1750940  18.3082174  36.6304631
  76.1547151  17.3515290  36.0586567  75.5918354  38.4596871  33.1799830
  75.3352048  39.3923655  33.3966035  76.3258618  38.6536534  32.5486061
  62.1706449  42.9695861  12.6648991  62.9549989  42.9848037  13.2972727
  62.4133063  43.8092189  12.1845087  73.2887454  32.8254301  26.3887993
  73.9640297  32.4363132  27.0066708  73.4265149  33.7737420  26.6410581
  69.0469804  26.2082822  26.5220453  69.9475172  26.3004292  26.9701004
  68.6819240  25.5717584  27.2324726  65.0934219  36.1569583  14.8485389
  65.9752946  36.5647682  14.8878448  64.5958935  36.9620960  15.2270105
  55.6767828  32.5400546  19.3584346  55.1626666  32.4200907  18.5459402
  55.8862896  33.5112187  19.2751217  74.2904409  35.4783662  26.5072601
  74.7300955  35.7736378  25.7447056  73.8968962  36.2155689  26.9503527
  66.7947882  35.5268432  12.3097366  66.8819067  35.6227347  13.2786591
  67.5567785  35.9907126  11.9477112  58.0718244  31.6164287  17.7982586
  57.1882215  31.6812145  18.1126664  58.5788478  32.1460902  18.5099653
  65.5530961  31.4577061  12.6308084  65.3296619  30.4812143  12.6929671
  65.8215683  31.5582344  11.7374894  48.9914644  43.3089802   9.1910713
  48.7785629  44.2570060   9.1416117  48.7979314  43.0772707   8.2627903
  72.0047155  30.5485142  25.7377554  72.2222482  31.4907589  25.9750748
  72.8658976  30.2737998  25.4378168  72.6374047  31.8936589  21.2695754
  72.5103583  32.0388250  20.3233811  73.4908969  31.4264261  21.3303175
  65.1983881  28.6306853  12.0978534  64.9046857  27.6703803  12.1877455
  66.1084834  28.5565665  12.4059623  56.0337128  35.2470414  19.4771044
  56.2293926  35.4411568  20.3905603  56.5093078  35.9545491  18.9826123
  69.4286405  43.5667738   7.9568012  69.0900415  44.1221732   7.2083662
  70.2697525  43.3231493   7.6001696  62.6437644  30.2632029  16.0765916
  62.1713286  31.1207289  16.1959455  63.4523638  30.4621155  16.6054131
  74.8696132  33.8877404  23.3704611  73.8658197  33.9857405  23.3536880
  75.0536186  33.8312329  24.3101591  69.5360629  44.6284353  10.3877352
  68.6495588  44.1699433  10.6325426  69.7445916  44.1844054   9.5426028
  74.9746372  38.7139516  16.2241617  74.5624274  37.8336504  16.1305291
  75.8040421  38.5549962  15.8093480  54.9857929  47.2556624  21.9538574
  54.8908200  48.1567268  22.3156911  54.4466451  46.7765843  22.6486727
  65.9898661  14.8625581  19.4236304  66.1757090  14.1064229  18.8433836
  66.3980495  15.6227042  18.8385928  54.6414686  25.6761917   6.2240650
  55.1142002  26.2436077   6.8836689  55.3543025  24.9790355   6.1162926
  71.0809243  42.3156620  18.2513650  70.7966067  43.1360107  17.8479133
  71.7525160  42.0166897  17.6177013  60.2958346  30.7383892  21.5097269
  59.5831617  30.1037033  21.3855674  60.9914293  30.3378805  20.9359594
  72.7576032  34.4521907  16.8793440  73.5102542  34.2983590  17.5096028
  73.0079375  33.8472282  16.1362851  72.1301712  33.7759273  23.1244222
  71.4562050  33.2377368  23.6804114  72.1826351  33.1199882  22.3960775
  79.3386890  34.6619967  33.6934664  79.1476632  35.5515009  33.3497183
  78.6069770  34.1035318  33.3282889  60.1395271  52.7560250  28.6485209
  60.8214522  53.2946572  28.2190665  60.7497441  51.9670204  28.8951357
  66.7752142  41.1141406   8.1055228  66.6727590  40.2090640   7.6650888
  66.0864885  41.5815921   7.5339805  66.8221684  29.9896947  15.2991403
  67.0124850  30.9321172  15.0972211  67.1637803  29.5387961  14.5183429
  67.0722302  41.2394326  41.0639855  66.7328717  40.3151468  40.8827467
  67.5536730  41.4054852  40.2193210  54.6475734  43.2600520  22.4170253
  54.6274409  43.8667128  21.6384643  54.0806533  43.7148313  23.0403468
  70.6748101  18.6715891  16.8868263  70.0722596  19.3379771  17.3379167
  71.5145372  19.1699465  16.9495305  10.8106627  41.4691651  31.7386790
  10.6420508  40.8123915  31.0403942  10.3498094  41.0450579  32.5017102
  68.6738734  26.7556954  19.7126818  68.2259836  27.3985022  20.2823710
  69.5870143  26.8886376  19.9464774  67.0873544  42.8848959  15.2258454
  67.7248475  43.5578048  14.8535280  67.6929584  42.1070544  15.2160739
  77.5202502  38.9285511  30.8527722  76.9420130  39.6282523  30.4428155
  78.2235686  38.9097255  30.2126813  67.7369437  34.6805011  19.8005089
  67.7790911  34.2475046  20.6741420  68.6793945  34.4431490  19.5441113
  52.8854334  26.0062130   9.9793977  52.1950393  26.1885906  10.5992316
  52.9554737  25.0324725  10.0608851   1.5567421  44.1630357  19.9600305
   2.2832377  44.0047461  20.6058102   0.9302432  44.7407257  20.5261462
  71.2312188  26.8132056  40.6625127  71.5942554  26.0905832  41.1565990
  70.2745724  26.5670346  40.6295029  72.5224168  26.3748378  32.7476104
  71.9279892  26.9266370  33.2974370  72.2819224  25.4542443  33.0724861
  69.1610768  38.3093305  22.0438147  69.2727058  38.4774307  23.0190808
  69.7916606  39.0525413  21.7327491  72.6242722  37.3735004  10.7572470
  73.2219590  37.6638043  10.0714685  72.0299132  38.1437990  10.8974051
  58.9274639  42.2321686  28.7584582  58.4633022  41.3782065  29.1162648
  59.7896161  41.7780155  28.5780553  64.1304421  30.4186880  20.7893048
  63.8141185  31.3033653  20.5036239  63.3887521  29.8483006  20.4592047
  66.6721476  37.8311038  24.9570750  66.8828214  36.9750068  24.5162429
  66.6602717  38.4330731  24.2101906  76.8267737  31.8530658  25.0560295
  77.0017981  32.5590764  24.3847233  77.4891769  32.0815819  25.7317837
  56.8199786  36.4961153  21.9484531  55.9639516  36.3696348  22.4805657
  57.2847056  37.0272898  22.6084124  74.3250508  36.1630673  15.5579781
  75.0019638  35.4493824  15.4477485  73.5665862  35.7016194  15.9595462
  70.6861058  21.5997256  22.8075379  70.7895745  21.6403803  23.7969107
  70.6544077  22.5303755  22.6098884  70.8059703  47.2296903  20.9127174
  71.2228407  46.3561816  20.5999901  71.2649052  47.8637692  20.3772657
  74.6678050  39.4384831  22.8732681  74.8181457  39.9533657  23.7003755
  74.2250028  40.1972799  22.3618148  79.4841447  47.5247206  22.7995233
  79.5405127  47.8318455  21.9015734  80.2337730  47.9821004  23.2591918
  76.7761447  33.0455275  21.6630273  76.0681113  33.2261371  22.3168578
  77.3932488  33.7152590  21.9204526  57.0033074  37.7288924  18.2492846
  57.0951279  38.3233837  19.0550539  57.8166297  38.0766774  17.8179085
  64.5809094  43.0356075  27.5483770  64.1377018  42.2255174  27.8143341
  64.0539606  43.2996814  26.7512489   8.7359382  32.7928436  37.8033466
   9.0763238  32.1412610  38.4880267   8.0006028  32.2682261  37.4274456
  72.5328808  33.1117840  30.1304633  72.4671268  34.0704881  30.0878960
  71.9050726  32.8344917  30.7909080   0.3119402  35.3409587  28.4737542
   0.7429332  35.4590227  29.3183523   0.8163478  34.5595959  28.1684740
  75.3837426  33.6448375  30.3078411  75.3032971  33.3540644  31.2249982
  74.4176270  33.7164679  30.1175902  64.1990706  37.2197804  23.0907719
  63.8426400  37.0386239  23.9738751  64.4775398  38.1450187  23.2371996
  67.6191786  35.6112251  23.8254504  67.8440683  35.1086036  23.0403583
  68.4559349  35.5314242  24.3449098  73.7747429  35.9975040  37.3593077
  73.9466427  36.7177212  36.7276554  74.1108511  36.3757617  38.2132454
  67.0356647  17.3517300  18.6379367  67.0095623  17.9300225  19.3928471
  68.0305443  17.1890250  18.5771715  47.7987941  44.0777403  16.3575029
  47.6697569  44.7374663  15.6470408  46.8759532  43.9067511  16.5457571
  71.8178892  37.7684155  20.0152893  71.1215147  38.3643867  20.3362005
  72.4709500  38.4234094  19.6850501  69.0949931  24.9531632  39.6469987
  68.3888766  24.3740894  39.3196791  69.6469352  24.2234300  40.0286814
  69.1092860  57.0230248  23.5357216  69.8809236  57.2199438  24.1185313
  68.4664264  57.6410144  23.9620121  64.8218830  30.8448710  17.3562954
  65.3818572  30.7182207  18.1092295  65.4817144  30.7803956  16.5559302
  71.3308150  21.9109506  25.3819043  71.8488093  22.0489028  26.2185335
  70.4438706  22.1249574  25.7463066  66.1366961  23.3264458   9.4620247
  66.6659124  24.0500806   9.8043124  65.9277083  22.8655073  10.3249243
  75.2839310  25.4944375  38.1600429  75.2227125  26.0153350  39.0287112
  74.4177773  25.0962444  38.1979235  62.6754806  32.8412366  22.3718392
  63.5620768  33.1727086  22.3266072  62.5364955  32.5461813  21.4759923
  71.4279898  26.5653018  20.8863177  71.6061215  27.3403246  20.3355276
  71.7095118  26.8374500  21.7608196  62.8550127  29.5844727  11.6683722
  62.9638955  30.5248309  11.8668304  63.7188066  29.2182352  11.8562813
  64.0349580  19.7237111  19.7750786  63.1970761  20.1689725  19.8270774
  63.9874563  19.2568551  18.9251405  66.7228193  22.4486233  16.0987744
  66.0621725  22.0432580  15.5880206  66.4732296  23.4245239  16.1082592
  59.4616266  28.1856011  19.1951252  58.7360396  28.6131465  19.7184096
  59.2541448  28.6263014  18.3212308  68.0728548  23.4208593  22.3376838
  67.7708809  22.4832812  22.1140721  67.5366518  23.4652609  23.1994635
  71.1876985  38.4323358  13.2695579  70.8407963  39.2760237  13.5787959
  71.9742472  38.2890063  13.7948580  66.8199494  30.8764734  27.2762973
  65.8971283  30.7920974  27.6802279  66.9206801  29.9272743  26.9772532
  68.1751286  24.7680378  28.5719544  67.9839420  24.0385365  29.2305962
  68.7399800  25.3562392  29.1353763  59.8765524  43.7174797  24.4502533
  60.1636865  44.0136713  23.5624363  59.3338135  42.9515936  24.1685436
  74.9679659  33.7426162  18.5917891  75.3159861  34.5992704  18.9895828
  75.6065412  33.6027921  17.8400486  66.9413724  29.4298218  19.1376739
  67.6879729  30.0620481  19.0970046  66.4972055  29.6674330  19.9634116
  76.5548836  17.8478458  23.5901425  77.4597361  18.0938152  23.5536654
  76.3344527  17.5834022  24.4884231  30.0328419  52.6061140  78.4202040
  30.0743563  52.8011066  79.3822926  29.4345168  51.8466877  78.4253278
  64.7425168  34.5568185  21.8831179  64.7046186  35.3733571  22.4524082
  64.6908992  34.9312866  21.0054838  77.1221410  44.4211092  19.4836198
  76.6384885  44.1548900  20.2359564  77.3798857  45.3408105  19.7395776
  70.9567181  38.8500616  24.1476813  71.2120152  37.9358586  23.8909673
  71.5103471  38.8890828  24.9613746  66.2694589  25.3237487  16.3146451
  65.3425882  25.0747369  16.4231294  66.2087135  26.2709431  16.5620328
  63.8079426  40.4192129  27.9189220  64.0052508  39.7027835  28.6392468
  64.1507169  39.9405419  27.1312680  69.5187867  15.8900690  25.9586306
  69.4085018  14.9037209  26.0389045  70.4612569  15.8883748  25.5988866
  70.9466245  53.4460862  24.8351239  70.2124882  53.0236132  24.2609825
  71.6723631  52.8556888  24.6162470  13.1687022  47.7644505  26.4050677
  13.2935801  47.2598221  27.2275538  12.3161917  48.2136605  26.6915975
  61.2250898  46.7487384  22.1727818  61.9794480  46.8722962  21.6221588
  60.4773227  47.2514486  21.7242473  79.0630256  37.1487657  32.4911198
  79.5100950  37.9236467  32.9677862  78.3967611  37.7043311  31.9733839
  67.2182578  55.8388992  18.3787129  66.6901730  55.1138539  18.0280462
  66.8043008  55.9544496  19.2807898   1.0676788  52.8099770  26.1636984
   1.7219824  52.0705258  26.1400760   1.4723315  53.3826279  26.8303812
   5.0058230  43.5423086  31.2476248   4.7150798  44.1390389  30.5150901
   5.9321071  43.3535042  31.0128028   0.6360582  39.4731344  42.4569339
   1.2735577  40.2165643  42.7000529   0.4819871  39.1033711  43.3900408
   2.0014502  48.4657090  34.1042719   2.7675450  47.9082494  33.7893702
   2.4186726  49.3605454  33.8891506  62.0824664  45.1173087  17.6664169
  62.8801063  44.5484855  17.6847849  61.8808828  45.1764452  16.7104879
  71.7041958  50.5495273  31.4589920  72.0754214  50.5589511  32.3448568
  71.0797277  51.3272306  31.5718558   5.0637461  48.1250724  18.5272233
   4.4934366  48.7156750  17.9985568   4.3252987  47.8708527  19.1739449
   7.2409678  42.3514979  11.7975186   8.1583180  42.2616081  12.0236450
   7.0248382  41.5849057  11.2542203  74.2233227  29.1956555  19.2600161
  74.4815949  30.0887492  19.6670542  74.4254121  28.5875953  20.0124122
  77.0076953  42.6024323  17.2595004  77.8622262  42.6319867  17.7021671
  76.3778509  42.2945685  17.8826649   4.8443895  52.7122501  38.4940388
   4.7046777  53.2743828  37.7101590   3.9259270  52.2591448  38.4682125
  58.8117773  47.5378208  28.2963753  57.9891193  48.1036567  28.2296158
  59.0551241  47.8287040  29.1752439  67.1470640  52.6408941  21.7676150
  67.7102906  51.9416069  22.1672578  67.4266891  53.4531839  22.2233124
  75.7251997  60.5602483  27.3495815  75.9021179  59.8860167  28.0543525
  76.5984768  60.5163329  26.9175470  75.6951662  58.4484717  29.1967338
  75.0103123  58.4548652  29.8712950  75.4455845  57.6239704  28.7303710
   3.1654771  38.2438094  28.3967407   3.6816940  38.0584393  29.1669413
   3.7350265  37.8481455  27.6737428  73.2686087  39.6768406  39.0059285
  73.1582197  40.6155071  39.3528180  72.7335585  39.7804847  38.1672959
  69.5538092  47.1436158  31.4591139  70.3981608  47.4190627  31.9601561
  69.9132851  46.8092965  30.6222599  74.6929731  44.5481915  34.1087667
  74.8749511  45.4611574  34.3170383  75.3047557  44.4733383  33.3378245
  68.7952620  38.3829325  26.6784060  68.1757149  38.2565817  25.9199527
  69.6727858  38.4448458  26.2809090  78.5527742  35.0643096  36.8462517
  78.9078429  34.2463540  36.4598036  77.8506986  35.3155249  36.2379306
  77.1330351  37.8269554  27.5564711  77.4793134  37.1243505  28.1562051
  76.1841195  37.7761871  27.7055748   0.5549273  39.6347912  28.5175010
   1.4698109  39.1760386  28.4359713   0.2657428  39.4729602  27.6070818
  78.9580797  52.5902048  24.0045754  79.5861925  52.4344128  24.7181548
  78.9101747  53.5474158  23.9970542   5.3093825  43.8460953  17.9246512
   5.9621381  44.6223635  18.0772412   5.0866707  43.6200208  18.8314719
  71.8740475  34.2986714  37.6843496  72.4403668  35.0575098  37.4199865
  72.1645670  33.6402205  37.0322513  62.6344193  48.8557695  34.2946859
  61.7733054  48.6205870  33.9819934  62.6082612  49.8453867  34.2455476
  71.1836318  44.2553758  22.7070413  70.2985490  43.9314185  22.6126506
  70.9542922  45.1093456  23.1656577  73.7284698  57.6786374  26.1778649
  73.9575256  56.8051156  25.7170826  74.5111083  58.1719191  26.0823798
  62.5269599  43.1154755  25.3979851  62.6588523  43.7989750  24.6591582
  61.6060312  42.8736274  25.2212669  66.5644088  58.3468803  22.2623856
  66.5169547  58.0619226  23.2052535  65.6308073  58.1829808  21.9639435
   3.9747924  30.2870020  30.9348680   4.4974815  31.0585245  31.2091952
   3.6369863  30.0234691  31.8282012  55.9827776  49.8986153  17.0042052
  55.9717756  49.5451029  17.9077862  55.0473230  50.1670113  16.8262532
  66.8262344  43.2290588  26.0282160  66.1824846  43.3035217  26.7820865
  66.3510842  42.5955115  25.4677781  70.2314365  42.8342256  32.3748670
  69.3141979  42.6091826  32.0173279  70.7157862  42.9549785  31.5318316
  73.7860166  51.9839843  28.4796506  74.2052999  51.8905443  29.3279116
  73.5516739  51.1277541  28.1490970   2.8099565  68.1077593  38.9982885
   2.3848348  68.9258488  38.6425939   3.5929894  68.5589471  39.4574090
  71.7846883  47.4274935  27.2129667  71.4653005  48.1593429  27.8114532
  72.7370812  47.6284755  27.1662708   2.5949284  59.2371519  26.9816468
   2.1062469  59.3488568  27.8286423   2.5658798  60.1930575  26.6451524
  69.9478805  32.0961417  15.4890151  69.7437417  32.5466117  16.3548759
  70.9166501  32.3274647  15.4251257  71.7798418  39.4075195  26.7712386
  71.3315064  38.9263555  27.5208771  72.6784008  39.4857307  27.1687137
  25.8223428  76.9963832  61.0610728  26.4216030  77.5495438  60.5421151
  25.9367780  77.3289102  61.9570266   0.3695179  42.3962253  29.3797149
   0.3388022  42.7961633  28.5074907   0.5700559  41.4631643  29.1456198
  73.0422905  30.2522976  29.5131926  73.9763618  30.1231327  29.1994910
  73.0163181  31.2496184  29.4256926   0.6717395  45.5376579  24.9800475
   1.0886891  44.7032439  24.7136845   1.3573450  46.1885225  24.5569116
  58.0674782  45.3873353  20.4813546  58.2396853  45.4394377  19.5079547
  58.3302634  46.3262651  20.7350612  30.0651354  66.9283306  64.8965257
  30.3747598  66.0323923  64.5995720  29.1835852  66.7754896  65.1894034
  75.1948031  39.1914688   7.6628385  75.4499892  38.8123902   8.5744220
  74.3054081  39.5054969   7.8620910  78.9645547  41.8872962  23.0151631
  78.1103452  42.2133910  22.6554948  79.4690554  41.8757257  22.1980119
   0.4037184  29.3734363  23.7049023   0.6790201  29.8244756  22.8528635
   0.9784311  28.6148317  23.6469285  25.4887501  71.4083626  67.5286133
  26.3607396  70.9519657  67.4056133  25.0689053  71.2150668  66.7179899
  55.3615137  16.4316377  77.2274560  54.6409769  16.1662878  77.8386803
  55.4273794  17.3983896  77.5287564   4.6045547  49.2011019  32.9188420
   5.1632695  49.8707997  32.4650291   5.1693081  49.0153363  33.7112789
  57.0313411   9.6264979  72.5006758  56.1457890   9.8762189  72.7924390
  57.6036315  10.3502967  72.7996431   8.4963433  42.5998086  18.5835918
   9.2556903  43.0442974  18.9881442   7.8233819  42.8046100  19.2805441
  75.4875983  48.3619586  22.5088973  74.6711134  47.8875744  22.8590789
  75.0056364  49.0490446  22.0534745   4.7080042  31.7088785  18.8638255
   4.1887418  32.1829136  19.5647722   5.4158560  32.3066058  18.6387822
  67.3923095  51.6678974   9.3420429  67.9496776  50.8700210   9.5265441
  67.6888102  51.8707545   8.4299016  -0.0153588  49.9306662  28.5854477
   0.6983132  50.2052900  29.2063046   0.5883907  49.7154989  27.7867289
  72.2504022  54.3111743  19.8509461  72.7189137  54.3958945  20.7031738
  71.4109292  54.8597709  20.0766244   8.3956961  30.7437609  31.7647761
   8.4979867  29.9420501  32.3218784   9.3479665  30.9802023  31.6735688
  76.6943043  35.6740245  19.7193875  76.3500804  36.3100815  20.3247752
  77.3493763  35.1856245  20.1990359  72.9099734  43.5599199  38.2201800
  72.9889550  42.8568749  38.9151540  72.6229000  43.0091844  37.4732663
   1.5634850  63.6931646  23.5470842   1.0423861  64.4479438  23.1222925
   1.0656923  62.9418262  23.0487245  65.1627350  34.7252843  19.2465906
  66.0283430  34.4819393  19.5663488  65.2472387  35.1899069  18.4690881
  74.2828154  39.8162600  27.9035292  74.9463882  40.4295722  28.3368605
  74.3840458  39.0191668  28.4588453  56.7698497  46.4472451  25.6233148
  57.5730529  46.6508344  25.1468209  56.9852942  45.6475314  26.1852788
  72.9127793  51.1498600  33.6933579  73.8626102  50.9940681  33.5394900
  72.8598950  50.6380368  34.5894505  11.9018526  46.4113824  32.1913764
  11.6214060  46.1606453  33.1083675  11.7082778  45.5497494  31.7622654
  72.3866683  47.6299384  15.1304980  73.2313367  47.8183741  14.6094510
  72.1378099  48.5431939  15.4226494  78.5265069  58.3337470  26.5188637
  77.7177788  58.0259368  26.0192321  78.5030924  59.2883470  26.3637184
  78.7117357  44.1873524  31.3700435  79.0100152  43.6279791  30.6334575
  79.2666754  43.7713753  32.0904351  75.2361446  53.7138648  31.4611997
  75.7685584  54.0945683  32.2194780  74.3756064  53.5372134  31.8944402
  66.5758810  49.1760623  22.7545001  67.0222468  48.5327977  22.1953728
  67.3187143  49.5199510  23.3196835  68.4405686  34.8539592  28.9867579
  68.8437222  34.5147047  29.8062054  68.6417696  34.1431173  28.3777386
  73.7404537  55.2748943  29.8107022  74.2756043  54.6512433  30.4319670
  74.3977720  55.1674497  29.0268660  73.5372626  41.3676793  16.7563793
  74.1630710  42.1325507  16.6679275  74.1244937  40.6735900  17.0069710
  67.3477856  39.4683402   5.9035728  66.7346970  38.7217382   5.8552443
  68.1968960  38.9347962   5.8906859  75.4792978  45.0736067  23.1128179
  74.8670011  45.7279516  23.3847901  76.3202396  45.3718545  23.5376252
  68.9918495  51.9411390  23.9148134  68.0834483  52.1251983  24.2074340
  69.1229397  51.0646137  24.4016026   6.1439681  56.0938175  24.8175469
   5.2880618  55.7306471  24.5212391   5.8701470  56.7968913  25.3877821
  76.6730729  45.2360723  16.7983310  77.3127359  45.7879865  17.1784874
  76.8227941  44.3491264  17.1525192  15.1491843  55.8528136  33.6244559
  15.7120567  56.0381848  32.8958667  14.9513951  56.7491810  33.9420062
   3.7066405  43.2593442  21.3246355   3.3242975  42.7154200  22.0516949
   4.5938941  42.8101749  21.2153639   3.2838174  38.4227767  23.6257012
   3.9611827  38.0882178  22.9880310   3.0522541  37.5717130  24.0595746
   8.3345639  35.8413077  35.3757649   7.3420926  35.6764144  35.4996890
   8.2594133  36.6050968  34.7330344   8.5931686  58.0889284  21.1253010
   8.7475531  58.9424677  20.6491407   9.5114576  57.8436590  21.3969563
  71.6337388  56.0369648  24.5221775  71.8936914  56.0629627  25.5047790
  71.5254809  55.0574380  24.3964613  78.1699302  46.3648973  39.4014282
  78.9485136  46.2080043  38.8773708  77.4535550  46.4401658  38.6817733
  64.5660191  51.3833103  26.9773607  65.2321883  51.8095150  27.5363539
  65.0250844  50.5885538  26.7358950  74.9148424  55.4573505  25.3840002
  74.6541181  54.7103994  25.9669684  74.8153870  55.0396495  24.5263263
  59.8563313  40.4948376  25.3115315  59.4298393  41.0136188  24.5960538
  60.0442524  39.6751776  24.8171908  23.8134601  -3.8590288  25.5935145
  22.8775592  -4.0378943  25.5820506  24.2390558  -4.7489360  25.6069892
  71.1625350  42.6267106  35.1201395  71.0323967  42.7084428  34.1488746
  70.4684324  43.1973313  35.4466842  67.4327250  38.2571996  17.0804640
  66.8613016  39.0619385  17.2496007  67.6564334  37.9846050  18.0020619
  77.0966514  42.6423557  27.3521621  77.9669888  42.2185065  27.1636293
  76.8918955  43.0494423  26.4865170  73.4619776  61.8889443  25.5650577
  73.5360147  62.8753534  25.4332571  74.2643577  61.6995905  26.1237909
  59.7472927  59.4825819  26.6167031  59.4897552  58.8429240  27.2966672
  59.1976509  60.2425429  26.8059403   5.9117253  35.9819385  19.9941845
   6.7168005  36.4541220  19.7350931   5.2659836  36.2517227  19.3241383
  69.4415352  34.0637465  31.4297350  69.4312221  34.4339823  32.3330580
  70.0546839  33.2936763  31.4938652  62.6750004  64.0838641  22.6463662
  62.3504743  63.5639803  23.4180526  63.6105978  63.7599874  22.6263359
   7.0078382  44.9154541  33.5114942   6.2877328  45.1562977  34.1273207
   7.2981326  44.0310806  33.9414834  73.2353476  47.5361056  30.5599011
  73.5059866  46.7048673  30.1924159  73.9106244  48.1134456  30.0827911
  77.8957439  34.1647114  23.9743636  77.6284985  35.0982004  23.7748372
  78.0710065  34.3103031  24.9614518  77.0924757  33.5047507  11.8349892
  77.9921585  33.3127973  11.5012462  77.2007327  34.3957673  12.1695851
  76.4375468  44.9495994  28.7851472  77.0250317  45.4334946  28.1601230
  76.5528825  44.0571660  28.4498982  70.2473298  40.5212741  20.8206097
  69.6914954  40.6167701  20.0141635  70.5223769  41.4719120  20.9197215
  68.9396328  43.4986888  29.3763324  69.6667656  44.1721465  29.2254019
  68.8465392  43.2100338  28.4340947  10.4394185  43.3867244  22.4799043
   9.5538208  43.6145720  22.7784955  10.9758775  43.5298572  23.2900187
  66.0069698  52.3184916  29.1056713  65.1736653  52.0225559  29.5928195
  65.8707354  53.2964761  29.3727795   0.6125212  37.4624862  26.5249305
  -0.3392350  37.1166336  26.5376185   1.0644080  36.7653579  27.0347933
  74.9695971  49.1039310  29.2738178  75.8653137  48.6470968  29.1212673
  75.3077655  49.9380469  29.7586582  76.4654353  47.8460471  33.4712347
  77.4638128  48.0443336  33.3733264  76.4482166  47.2707263  32.6550289
  71.2341647  49.0512273  23.0055239  72.0774999  49.4247934  22.5441966
  71.3326943  48.1414063  22.6729774  56.0180257  25.7902794  82.1241122
  55.8047545  25.6706351  83.0549505  55.5294730  26.6191680  81.9024556
  75.5646620  42.9562524  21.6905397  75.5146554  43.7006652  22.4343256
  74.6666275  43.1460782  21.3040072  78.3738105  57.9075326  32.2610192
  78.7670508  57.0616216  32.5348070  77.4056460  57.7914492  32.4149851
  70.7116616  61.1676052  27.3585423  71.2935120  60.4114144  27.3153051
  70.3912474  61.1200999  26.4468338  72.0729738  39.8670369  32.0054008
  71.7980087  40.3654949  31.2405563  72.9341136  40.2906764  32.2399472
  67.2724924  57.6800722  16.1319457  67.7705846  57.1090992  15.4981917
  67.2975665  57.0284165  16.8715096   1.0113322  36.6647451  35.7916490
   0.2717307  37.1931867  36.1065179   0.5748137  36.2207758  35.0409761
  77.3655147  42.4388551  11.3118571  76.5339508  42.0788317  11.5641621
  77.1879874  43.1922715  10.7434884  70.0255988  34.9592983  25.6105521
  70.0493661  34.1048086  25.0934731  69.8790725  34.6187699  26.4935211
  65.6614960  44.5342455  16.9245246  66.1581072  43.8890121  16.3978386
  65.4338228  44.0440853  17.6979379  75.5279673  51.5246174  18.8463024
  75.9324609  50.6613999  18.8127350  74.8592363  51.4802861  19.5220247
  69.5249159  50.3242515  21.1265618  69.9608480  49.7755180  21.8363636
  70.1614316  51.0738451  21.0989891  67.4163687  46.4005276   9.0858348
  67.8087413  46.7181632   8.2390633  68.1794905  45.9508938   9.4539364
  75.2505268  53.0353827  26.3437059  74.7470919  52.4785016  26.9470190
  75.9279030  52.4908830  26.0332043  69.7953807  52.2133932  13.6876692
  68.9794898  51.7976409  14.0377768  69.9155076  51.7644364  12.8427041
  72.3728920  42.5107166  30.3729554  73.1016429  42.2151290  30.9337378
  72.7563683  43.2198219  29.8746164  70.8127984  45.1571737  28.5163700
  71.7584518  44.9809333  28.4975208  70.7957061  46.0613294  28.0854952
  70.2902061  33.3549340  18.7490140  70.6517226  34.1210211  19.3152921
  71.1253902  32.8659598  18.6751104  77.8447464  41.8728905  33.2651238
  78.0193778  42.1258608  34.2061709  78.5638762  41.2150308  33.1057005
  74.2719418  40.6257290  48.7264455  74.7599133  40.0821541  48.0569076
  74.2710483  40.0272637  49.4966955  79.0121469  36.5883950  15.5138857
  79.2927746  36.4795507  16.4700135  78.8606806  37.5890458  15.5696788
  58.7538087  50.7602843  25.4633244  58.0125844  50.6191272  26.0009513
  59.5010816  50.7420850  26.0106990  73.3837318  49.1025669  45.3640113
  73.9999292  49.7441365  45.6709102  72.9541579  48.8585889  46.2416372
  61.8102949  41.8848767  22.5208392  61.4264870  41.0664252  22.1254365
  61.0884097  42.5297432  22.2820293   0.3238518  56.7853071  37.3260616
   0.6336831  57.6587289  36.9665347  -0.5213795  56.7381981  36.7497829
  72.9856106  49.8123167  36.0171373  73.3795967  48.9273809  36.2782684
  73.1362579  50.2803273  36.9015179  58.6366530  53.9699671  26.5274282
  58.1288386  53.6308728  27.2853877  58.1570991  53.4839370  25.8065530
  53.5676458  15.4063304  72.2180600  52.8702244  16.0058658  72.0744927
  53.1911511  14.6010195  71.7526688  65.0391457  43.2664939  30.4353244
  65.0495706  43.4894016  29.4640181  65.4992517  42.3770905  30.3363436
  67.3880406  58.5048953  25.0366948  68.0959918  58.5756159  25.7118630
  66.7134330  59.1208896  25.3753322  75.1461661  41.5078487  18.9298004
  74.4133196  40.8963368  18.9780278  75.3449132  41.6264520  19.8760862
  70.2369445  54.5448236  27.2475966  69.5007290  53.8851396  27.2174653
  70.5804614  54.4142130  26.3692279  75.0043301  54.6765858  15.0775175
  74.5469627  54.7600004  15.9488701  75.3598779  55.6296727  14.9976659
   0.3039412  23.2119093  32.3209569  -0.3254963  23.9793396  32.2046641
   0.4833723  23.1327831  31.3160140  66.0015526  40.5178538  30.0884781
  65.5211989  40.5465725  30.9657849  65.9487175  39.5840689  29.8661340
  77.8554373  52.0405970  27.0551374  77.4413121  52.5593196  27.7074368
  78.5397867  51.5894703  27.5650272  53.5404289  36.1590981  82.7618214
  53.5590215  36.7674145  82.0012415  53.5270510  36.7750205  83.4900701
  68.1700984  50.1983375  31.1826462  68.9041574  49.5375848  31.1132634
  68.7144144  51.0214202  31.2691338  53.5582976  33.1029359  86.5886523
  53.6300772  33.3587149  85.6454377  54.0245522  32.2127031  86.5373447
  79.3089286  50.4851155  13.8486549  79.6384460  49.6934521  13.4162669
  78.7993009  50.0765670  14.5951800  26.2366108  -0.8194348  30.5973157
  25.4893316  -0.2492200  30.8386209  26.3514166  -0.5403354  29.6685724
   6.6877384  53.1308923  29.9888809   6.5856878  54.0009678  30.3854047
   7.6615401  53.1192057  29.8547417  55.7955270  39.6255484  79.9144298
  54.9529463  39.3571643  80.3150174  55.4628623  40.3881687  79.3286656
  47.5012282  25.2385120  79.3531089  47.0873450  24.5254876  78.8717476
  47.3133473  25.9719959  78.6557776  49.9019450  32.1679890  73.3493287
  50.1580641  33.1412863  73.4102385  50.2800465  31.9831044  72.5124580
  64.7186871  51.8848541  21.1950984  64.5517440  52.7964747  21.5421858
  65.7384787  52.0686507  21.1467074   6.9119164  58.4023644  23.3986889
   6.6076027  57.4875398  23.4954575   7.7490737  58.2381906  22.8573654
  23.4990310  -2.0503727  40.5314996  24.3168922  -1.8058558  40.8943438
  23.0848936  -1.1645522  40.3205452  35.1984626  -3.0737651  19.5067949
  34.7555975  -3.8819755  19.8708815  34.7107902  -2.3779811  20.0024565
  44.7852721  26.4762498  80.6570784  44.7111044  25.7898794  79.9908424
  44.4074738  27.2673579  80.1268858   1.0969308  57.0637673  25.5490120
   1.8364443  57.2910769  26.1595813   0.3447948  57.4155373  26.0174413
  25.2144498  -6.1312407  26.0673894  25.4034439  -6.1820842  27.0747168
  26.1226234  -6.2940838  25.7918737   6.8894449  67.3003499  21.4437091
   6.3260051  67.5532834  22.1761502   6.4528439  66.4656091  21.1555159
  65.1794726  54.0494690  35.1561123  64.8096924  54.9406552  34.8728102
  66.1247792  54.2686199  35.1196717  71.5127135  37.8493213  68.1526221
  72.1047134  38.6154351  68.0017999  71.9652339  37.1995536  67.5451896
  19.5033081  69.1850428   9.6174662  20.2527303  69.1413157   9.0410985
  18.8940762  68.4724652   9.3418268  49.1344048  15.3391304  17.8243084
  48.8355453  14.4879038  17.4621011  49.1185654  15.9547530  17.1299318
  76.7834540  39.3725881  60.9730491  77.7326876  39.5777910  61.1313982
  76.7902410  38.4444696  60.6836426  76.9607732  38.0220246  69.3471805
  76.1450684  38.4886156  69.6328744  77.1556532  37.5905036  70.1864427
  49.2786451   3.4870785  17.5507113  48.3607046   3.1218537  17.7263181
  49.5356282   2.8535225  16.8489301  77.6945592  36.6419268  67.3804634
  77.1886380  37.2239636  68.0659613  77.8232791  37.3449648  66.7078117
  46.1450228  75.9550017  30.8465599  46.4291028  75.6854212  29.9446273
  45.9239407  75.0699324  31.2237894  32.8407489  76.3433944  25.0409705
  32.5657943  77.0462966  24.4224485  32.1668982  75.6921697  24.8773431
  48.6245439   3.7690860   8.7222477  49.2156479   2.9823215   8.7976928
  48.9484784   4.0930126   7.8141615  49.3488685   3.8559205  20.4143351
  48.5655961   3.3900884  20.6995945  49.5071225   3.3780902  19.5867381
  72.5696110  33.9866570  64.7943596  73.2765818  33.3768886  65.0461532
  73.1117110  34.8360991  64.8916144   5.5703114  41.1975403  74.4339897
   6.3922198  41.1382832  73.9296237   5.8799199  41.5676477  75.2653129
  35.9386562  71.7420487  27.6483473  36.1111956  72.5183965  27.0444585
  36.0575267  71.0076596  26.9775758  53.9436740  13.0004255  13.7489087
  54.5590946  12.3182939  13.4652855  53.4323335  13.1709016  12.9138150
  26.3381553  76.9735638  16.2921359  26.6723094  77.1988614  15.3692644
  26.4377946  77.8972202  16.6526887  13.8744491  71.1667882  27.3546465
  13.9895720  70.2890778  26.9110725  14.4365415  71.7036782  26.7225176
  51.8324658   3.7471922  23.6342396  50.8669584   3.9535133  23.6172067
  51.7850462   2.8348271  23.9669837  61.2427160  40.7299562  70.2193167
  62.0151893  40.2823553  70.6306817  61.1256917  40.1398790  69.4258713
  30.2366684  63.8594246  22.8826233  29.5429599  64.4632729  23.2340476
  29.7082095  63.0137619  22.9092896  51.3077031   6.5905118  19.6596041
  50.4843363   6.5834448  20.1669813  51.9804088   6.4545083  20.3383454
  36.0969615  75.5488350  22.4908873  36.2528599  75.4586150  21.5290891
  35.6645793  74.7222227  22.6705240  18.3426974  45.3417690  76.2945296
  17.9410458  46.2159184  76.2216624  18.5551671  45.3334928  77.2553693
  58.7984788   9.2625144  14.6889016  58.7983989   8.3092452  14.9679963
  59.7611337   9.4504570  14.8387521  14.9306877  56.1660541  73.9427900
  15.1892340  56.6980286  74.7589388  15.7959165  56.2197201  73.4713852
  60.8040829  22.1717784  26.7711897  61.3358399  22.8915401  27.2045192
  60.9093071  21.4480728  27.3972776  63.1932173   9.9297897  22.3738403
  62.7542299   9.0849129  22.1897724  63.7765303   9.6625873  23.1653348
  29.7044210  75.6624601  24.8296939  29.5523571  76.4839254  24.2960313
  28.9667317  75.7913296  25.4699615  66.5483973  18.6648830  14.1668997
  65.8742554  19.0473565  14.7792207  67.3443016  19.1495360  14.5064240
  48.8504844   7.2653586  13.8792402  48.0821791   7.2916207  13.2328919
  48.4322980   7.5088997  14.6993323  53.8262062  23.9149305  14.8200984
  53.5599195  24.8734853  14.5946941  54.4527921  23.8129093  14.0668079
   3.2576217  10.8263485  26.3884298   2.4981370  11.4324796  26.6237093
   2.6964525  10.0363539  26.0694249  63.8564277  16.7605624  25.0465092
  63.2308224  17.5122364  24.7370850  64.2842028  17.2263256  25.8226082
  71.8774351  18.3177436  24.1102801  72.6062603  18.2868438  23.4344867
  72.0614936  17.4863441  24.6355291  11.2379138  42.5024511  68.7104014
  11.6160542  41.7484871  69.2185267  10.3205982  42.3036360  68.7071778
  72.3118927  26.5488459  17.4758488  71.6249153  26.9219608  18.1283885
  72.7537343  27.3944235  17.2803089  74.4766558  16.3293926  19.6887417
  75.2184792  16.9553836  19.5271732  74.6808732  15.7189067  18.9631067
  61.3014580   9.4548943  15.6825720  61.6503103   8.5879918  15.4032873
  61.6169375   9.5033555  16.5908357  37.9308088  78.7140898  19.9007384
  37.1954752  78.1958262  20.2370568  37.5525308  79.2514015  19.2067792
  39.5291197  64.8322116  30.6803990  40.4123934  64.4214272  30.6773914
  38.9718269  64.0040744  30.7869623  57.5742110   5.2552099  16.6773967
  57.9692015   4.6216886  16.0288857  56.6108253   5.0572299  16.5279218
  42.7725740  70.5353748  17.7977799  42.2128292  71.2327823  18.2137065
  42.9674755  70.8616118  16.9365925  36.1244792  70.5631737  11.1678425
  35.4694454  70.4807988  11.9038885  35.4895710  70.5176750  10.4008348
  53.9257735   4.6574497  24.7892879  53.1051074   4.5546883  24.3121054
  53.6682112   4.4075423  25.6772258  55.0965480  14.7892184  17.2375699
  55.6329746  14.0085787  17.1977930  55.8023089  15.4551085  17.4735862
   9.6339929  42.5499364  75.0053809  10.0072043  41.6294374  75.1039673
   8.8663375  42.3521396  74.3904853   4.2940086  33.3804870  65.8296405
   4.3619285  32.4098015  65.6520054   4.7083406  33.7914402  65.0547721
  14.7212306  47.2826055  78.9485798  13.9331454  47.9299036  78.9441848
  14.5554593  46.8527586  78.0658216  70.0329250   8.7783886  18.1147521
  70.7314436   8.6170368  17.4678708  69.3200932   8.2037964  17.7941316
  65.7306693  29.5272219   7.2481927  65.0056095  29.5511806   7.9597297
  66.2372758  30.3202347   7.4986602  67.8996243  13.4506731  27.9623295
  66.9197952  13.4826162  27.7816429  67.8888840  14.2167493  28.6087102
  60.8775808  18.3460142  20.7025742  61.6586231  18.6203606  21.3008752
  61.2524681  18.7946619  19.8701932  78.3062110  36.7663027  71.3534990
  79.2214569  36.5341485  71.0500515  78.5001810  37.6279183  71.7498768
  15.7667005  40.3293880  69.5978542  16.4973573  39.6825796  69.6042473
  15.6115962  40.5598128  68.6654049   4.8072306  43.8256515  70.0088206
   4.8486906  44.5356755  70.6699090   4.5503895  43.0459248  70.5403927
  67.1553657   9.2536622  16.4850283  67.2875199   9.3945874  15.5040220
  67.7397632   8.4687441  16.5512623  50.5083234   4.7695369  13.9256181
  50.3158731   4.6313044  12.9709350  50.0586053   5.6239676  14.0438885
  56.6670766  23.9479095   5.9197589  57.0759963  24.0953661   4.9854403
  56.9960924  23.1513282   6.1508080  65.0749419  18.4291285  17.1501057
  64.5763017  17.5930131  16.9580146  65.8062275  17.9957390  17.6502589
  30.5617052  76.0813979  16.4656547  30.8236525  76.5624442  15.6442117
  30.2335511  75.2138706  16.0589403  66.2150774  11.0322903  22.9720535
  67.1441079  10.8633538  22.6748439  65.9307975  10.0802102  22.8884002
  28.6365442  46.8506714  87.4133916  28.1717954  47.7298468  87.2291921
  29.5480216  47.2240782  87.5102970  69.5111796  16.0830658  18.8852573
  69.9652158  16.3639523  18.0427804  70.3210228  15.7234114  19.3135835
  25.5610452  54.4928455  75.1524655  26.1075522  54.5877613  76.0048645
  24.9183624  55.2484191  75.3199372  65.0232917  10.8831019  13.4983986
  64.9559392  11.4969429  12.7318672  64.0874256  10.7949299  13.7086954
  71.2303210  23.1588498  13.8672354  70.3866095  23.3537941  13.4123047
  71.1925741  23.8799752  14.5395185  25.7936796  50.7823223  80.6190019
  25.0121770  51.3718316  80.7588358  25.4481970  49.8946944  80.4179379
  69.3282841  20.1954323  14.5583125  70.1409371  20.4875455  14.1031985
  69.6872904  19.9387441  15.4022970  22.2726798  46.6129350  83.0545016
  21.5187279  46.1566947  83.5108617  22.6378637  45.9041668  82.5228865
  19.0922765  44.8423342  79.1581309  18.5688678  45.6868254  79.2975923
  19.9037705  45.1079031  79.6353368  52.3629548  72.7896328  25.9454777
  51.4520154  72.5600604  25.6183118  52.2569596  73.7239591  26.0831363
  13.5732808  51.7759014  75.5020700  13.2447964  52.0619426  76.3518548
  13.3475629  52.5363288  74.9164759  41.5337144  78.3915961  14.2463769
  40.7010306  78.5586877  14.7200047  41.2468748  77.9459212  13.4607299
  59.7964149  12.8583479  13.6441515  58.9585679  12.5237614  14.0170917
  59.9002565  12.2681951  12.8767911  58.2224489   5.1048087  19.7191329
  58.2244349   5.4547611  18.7673702  58.3086201   4.1693229  19.5361583
  20.5313822  66.2423144  66.9403465  21.2998550  65.8442983  67.3850338
  20.9497518  66.8689855  66.2974500   8.3144468  45.9832338  72.6442642
   8.5781052  45.0644021  72.5721788   7.3619588  45.9628091  72.3389445
  72.2531574  14.6460953  16.5703999  72.1722534  14.7577482  17.5838222
  71.4477725  15.1786039  16.3669907  62.8719185  23.0302039  13.7448518
  62.6182048  22.1752027  14.1850476  62.1209784  23.6057892  13.9563825
  67.1608466  25.3429172  10.7715919  67.0227351  25.5381690  11.7436039
  68.0715093  25.7107844  10.7211767  45.6828807  69.1728389  21.5151512
  44.9058306  69.7331512  21.2574287  46.2497195  69.8565314  22.0128585
  39.3249588  79.1400224  15.9992264  39.0938700  79.6457911  15.1960513
  39.0465931  79.6934756  16.7016037  13.5948049  47.2989295  67.0488193
  13.5579286  48.1450689  67.5459569  14.3565150  46.8678433  67.4374856
  50.2458991   9.5716851  12.7268140  49.5732315  10.2628697  12.6686879
  49.6861359   8.7976647  12.9926935  57.2696354  23.9746865   9.7926526
  56.8003842  23.2521923  10.2861012  56.4620313  24.6034361   9.8123236
  49.1142586  77.5868390  22.8414432  48.4200471  76.9953796  22.4272942
  49.8546234  77.3219366  22.2642728  72.8032225  20.4683547  16.2418554
  72.2074368  20.8539254  15.5331201  72.9997495  21.3176722  16.6902289
  49.8803530   7.3852739   5.6579624  49.9412639   7.7048976   4.7369826
  49.5299002   8.2775917   6.0821121  17.8131129  41.3124050  77.4500780
  17.6054470  40.8227481  78.3072757  18.0542831  40.5340204  76.8553261
  26.6395695  76.0080965  18.7003588  26.0329946  76.6201849  19.1297307
  26.7405818  76.4678979  17.8093595  21.5565946  49.7542688  83.7994206
  22.0743476  50.5863595  83.8122287  21.7616914  49.4423877  82.8594441
  67.2946190  23.1994948   6.9694589  67.0295037  22.2808385   6.8332861
  66.8329549  23.3735650   7.8626275  73.7013623  21.4046953  24.0202222
  73.4166435  20.7473157  23.3697041  72.8435292  21.4603029  24.5590764
  39.4731622  81.2332916  18.0721730  39.8064383  80.8400558  18.8864848
  40.2197300  81.6355323  17.6601183  63.3533847  15.1913196  19.9046863
  63.5459065  14.4539256  19.2291103  64.1311616  15.7378799  19.7043982
  61.6013979   8.9735771  25.7690081  62.4908499   8.8802604  25.3403220
  61.5602457   9.9448715  25.8895127  69.5987758  18.9590301  22.8982381
  70.2992601  18.7635121  23.5528290  69.8966946  19.8934371  22.6503139
  20.7656876  53.4451130  75.3107842  21.4600099  52.9198233  75.7227187
  20.2232479  53.7061466  76.0420912  60.3650800  24.6464632  11.8704555
  59.9699347  23.7475591  11.8529782  60.4103909  24.8025467  12.8233710
  12.3322487  49.2718525  69.3315718  11.3790174  49.1101220  69.2351243
  12.5038633  49.6369275  68.4536055  53.9943908  17.4411612  10.3505667
  53.4027558  17.0843736  11.0263501  53.3527272  17.7751601   9.7145895
  75.4767361  26.3655465  32.6247048  75.6711236  27.0898709  33.2455925
  74.4994758  26.4443129  32.6557754  53.6486838  81.8139787  22.1871516
  54.3790269  81.3863256  21.7268794  54.1871420  82.5915099  22.5572844
   5.9291177  39.7445581  70.6565121   5.4287012  39.7457734  69.7719708
   5.2510365  40.3192132  71.1159634  20.9518575  45.9068706  80.6621724
  20.6258353  46.7432095  81.0703802  21.6273363  46.3641109  80.0267133
  32.9167288  51.9655132  81.9569272  33.4593144  52.6736583  82.4067599
  32.0711733  52.0308127  82.4962060  78.9115815  13.9677370  28.8701292
  78.2214304  14.0333842  29.5499288  78.5774137  14.6404713  28.2352429
   8.5663244  41.7049431  68.9858472   8.4472561  41.9239679  68.0409647
   8.1014668  40.8452837  69.0782774  67.9675756  11.4999958  19.9624247
  68.1506321  12.1251293  20.7187568  68.7682241  10.9969776  19.9768408
  52.0719701   8.6283093  18.0330537  51.8168663   8.0598918  18.8052538
  53.0655914   8.4907337  18.0180580  65.6091579  14.2898556  13.5296903
  66.1411969  13.5958078  13.8958735  65.4434736  14.8991865  14.2857497
  44.5249846  82.9116205  21.6439655  44.7076354  82.1991131  22.2653865
  45.4129548  83.0906466  21.3102427  26.7113045  74.6198167  11.4828172
  27.0452403  73.7224420  11.2875189  27.5260520  75.1469851  11.4319517
  36.5210660  75.2765304  29.9474403  35.7326975  75.7612837  30.3773951
  36.1319412  74.3660931  29.9626955  68.8031784  20.7266253  17.3572710
  68.9821019  21.7104015  17.4849795  68.0920718  20.8222640  16.6493538
  57.8569404  13.9922785  15.9037236  57.5301476  14.7576155  15.3617122
  57.6684359  13.2443547  15.3008548  66.6844114  14.0756446  16.2588364
  65.7184437  14.1061543  16.1820386  66.7230170  13.3702660  16.9338594
  53.5549978  26.6610418  14.1595692  53.9484507  27.1285106  14.8782055
  52.9396231  27.2995787  13.7626438  67.9226745  28.5930101  13.0004280
  68.3641103  29.0694732  12.2886548  68.6860595  27.9876155  13.2369810
  41.3440385  73.9026568  13.9616775  41.7264159  73.9377382  14.8808414
  42.1521577  74.1614635  13.4621640  69.1032955  16.5019289  31.2199458
  68.7050558  16.0957839  30.4117082  69.3167731  17.3831085  30.8492422
  63.6551720  27.7298729  18.4130729  63.9953766  27.1269178  19.0967413
  64.4562312  27.8702042  17.8757558   5.4317184  49.4600409  69.6058724
   5.4101467  48.7111358  70.2089092   6.1441445  49.9592673  70.0532360
  29.0787754  61.6522867  70.9005034  29.0867536  61.7747142  71.9009623
  28.6803040  62.5119575  70.6483966  69.1252898  31.5349025   8.3317150
  70.0003789  31.8625936   8.0471962  68.5748883  31.7362360   7.5792485
  74.5158755  32.9824984  13.0912656  74.1544810  33.8129826  12.7885192
  75.3763702  32.9331149  12.5825263  66.7181188  34.4861082   9.0303924
  66.9713918  33.8191526   9.7052307  67.6145801  34.8019182   8.7886984
  72.6887753  32.1221942  18.5540554  72.6873299  31.8912307  17.6127244
  73.5210918  32.7069591  18.5462721  77.6313556  28.9034339  20.0616433
  77.7794492  27.9492913  20.2744847  77.5051201  29.2353926  21.0148818
  77.6987341  28.1189870  15.1969338  78.1547899  27.4295178  14.7215888
  78.2762249  28.3536153  15.8749045  64.7714209  41.1030303   9.9289927
  65.5850442  41.1792244   9.3199979  65.2393786  41.0548791  10.7551382
  69.2438370  29.4809052  10.6013397  70.1606302  29.5952723  10.8347016
  69.1171659  30.2277591   9.9855028   8.6270982  35.2930425   8.5509236
   8.0898927  34.5784146   8.8746737   7.9500379  35.8602863   8.1314837
   9.0608537  11.5978839  24.5703076   9.6703015  11.2516640  25.1996652
   8.2853208  11.8555724  25.1632577  76.9938876  36.6984578  24.3181242
  76.0138911  36.7541038  24.0726521  77.0807734  37.6401669  24.6710630
  22.5005462  60.1348281  71.6938814  21.5733151  60.2920646  71.7535987
  22.7069364  60.1281138  70.7384621  23.8630474  48.8719562  72.1372132
  24.0176373  48.7944339  73.1487521  23.0581426  49.4710388  72.1802179
  28.2532072  60.9305188  76.0772842  27.6418793  60.3809599  76.6371697
  28.6982752  61.4620121  76.7807077  30.7435912  52.8129941  83.5913832
  30.4747301  52.1343921  84.1841998  31.2497677  53.4301596  84.2198111
  77.7596989  26.1864682  20.4099137  78.2764752  25.7303827  21.0907686
  77.0146804  25.5359562  20.3368288  69.7014962  34.9798270  15.1297728
  69.8260913  34.0389935  14.9098280  70.4785740  35.2155210  15.6320600
  73.3327194  30.5077410  32.3731677  73.4494500  29.7364137  32.9152917
  73.2220489  30.1423611  31.4983761  58.9426384  23.8888419   3.8649284
  59.7002712  24.4560951   4.1074439  59.0101165  24.0049938   2.8766565
  62.5780357  25.4459759  10.5660648  62.0977184  26.1203405   9.9803728
  61.7759314  25.0775183  11.0516129  74.9812894  27.3058305  21.0468560
  74.7957574  26.3853680  20.7899166  75.7568984  27.1491511  21.6598834
  75.3694105  26.0866479  16.3257536  76.2306162  26.2963503  16.6897054
  74.9588985  27.0028312  16.3275960  71.6845444  11.5218904  23.0739842
  72.1790911  12.1371807  23.7192902  72.2735747  10.7900001  23.0494148
  72.9637688  32.2614812  15.2614808  73.6181309  32.2206849  14.5524191
  72.6013658  31.3412928  15.1668653  70.7444591  27.4115453  12.6546931
  71.1091446  28.3257706  12.5824245  71.4292526  27.0627194  13.3048463
  68.0784755  24.2255515  19.6972693  68.0734618  25.2158042  19.6122303
  68.1617030  24.1676539  20.6912948  67.6651283  18.0597297  25.2158878
  68.2364469  17.2775539  25.4056800  68.0182507  18.6798570  25.9064025
   1.2777655  18.7926788  32.3934349   0.3422671  19.1911679  32.2903001
   1.0870302  18.1143126  33.0782449  71.7680543  36.1625034  24.1596601
  71.8278389  35.2250907  23.8342955  71.2411865  36.0111199  24.9867000
   4.4029813  35.5379485  28.8431596   4.6101689  34.6532854  28.6178567
   3.6574050  35.3849656  29.4715580  64.1276028  22.7592971   6.6837774
  63.6882547  21.9365833   6.4615169  64.6134435  22.9611639   5.8365016
  58.1546111  35.8316621   8.1906393  57.5847052  36.3016401   8.8746018
  58.5775765  36.6518335   7.8428688  29.1578661  50.2015137  72.4944060
  28.2920838  50.4352149  72.0950616  29.6052025  49.7894561  71.7735434
  21.0127225  44.3975874  67.3914608  21.5226931  43.8735337  68.0769187
  21.4048730  45.2830283  67.5953424  28.9546883  59.8311499  79.6699123
  28.1331498  59.4729902  79.2595191  29.4884592  59.0255342  79.6048444
  24.7998373  60.8064189  75.1637180  24.0109580  60.3550834  75.5606271
  25.1341914  61.2662861  75.9555623  26.3130581  51.3422793  76.2518171
  25.9889573  51.4027135  75.3245226  27.2079833  51.7239875  76.1187789
  27.4637932  54.0934323  72.7406584  28.3417917  53.9798064  72.3200444
  27.6813797  54.9384283  73.2188642  27.9130349  48.4827344  68.9826340
  27.1197051  48.0762523  68.5163624  28.3029973  47.7062141  69.3916131
  60.3816704  22.0481274   9.7424052  60.1250717  22.4498062   8.9037355
  61.3433567  22.2447926   9.8454847  19.3383101  47.6402689  82.0127536
  19.3946421  47.9127634  82.9346805  18.8348887  48.3711639  81.5527503
   7.6555797  16.4749833  17.9190192   7.7105448  17.4770436  17.9477085
   8.1691273  16.2231057  18.6970259  71.9362457  41.3853629  13.9626108
  72.8385599  41.0409621  14.0959848  71.6596311  41.2232734  14.9391009
  24.6409338  51.1936301  73.8337737  23.7578290  50.8701477  74.1000208
  24.3215586  52.0226946  73.3518197  69.5456827  26.5057860  10.6128240
  69.9789148  26.7351875  11.4769923  69.5846141  27.3930172  10.2388077
  74.3504950  23.5805690  16.5551168  74.3539623  24.5577829  16.4497284
  75.1730301  23.4663065  17.1049161  27.1027832  66.4997338  77.1061485
  27.9977705  66.5028557  76.7712607  27.0531811  65.6445758  77.6141819
  28.1832412  50.6366642  78.6850510  27.3630626  50.7752109  79.1922730
  28.2224925  49.6531443  78.6971985  66.2316322  34.1906624   4.8390478
  66.5031553  35.1620466   4.9066399  65.5921063  34.2602749   4.0806307
  55.4829482  46.0351209  13.8654420  56.4389518  46.0820886  13.8508396
  55.3544392  45.0534619  13.8277434  75.2058485  22.0555474  14.5786133
  74.6737949  22.6140188  15.2005408  76.0708057  22.1264807  15.0175768
  31.4301353  62.7080285  72.7530687  30.9545061  63.2049085  73.4519018
  32.1909503  63.3270672  72.5996427  46.9415988   3.4165584  68.2590549
  46.0341972   3.4323191  67.9612055  46.9157505   2.6527376  68.9095426
  75.7965925  42.3283295  14.7435592  75.9800812  41.3863656  14.5283273
  76.3542831  42.4646213  15.5015024  27.2116352  58.4994613  78.3791982
  27.4213929  57.9736233  77.5838443  27.2037817  57.8091899  79.0684072
  76.8110738  30.9096777  13.0832845  77.0753950  31.8331356  13.1883396
  77.6867107  30.4408763  13.2424038  70.9848758  25.2989928  15.6577961
  70.1050463  25.6699060  15.9206540  71.5494818  25.7965073  16.3415108
  54.1546624  26.7700123  16.8843521  54.1119804  25.7928763  16.8100015
  54.3619381  26.8343602  17.7934929  63.1221308  37.6847885   3.6411000
  62.1455724  37.8541281   3.5447929  63.3562375  37.9453159   2.6960787
  64.4086678  30.6724001   9.1142286  64.0085061  30.1130369   9.7826164
  64.0865238  31.5372536   9.3089390  76.1277547  32.6497498  16.3844495
  75.8901473  31.7022844  16.1856128  76.6844224  32.9021555  15.6590565
  41.1009059  79.1389340  24.2403337  40.5307551  78.4633400  24.6649190
  41.9646046  78.9321967  24.6073845  59.6601117   6.8459592  15.7185151
  60.4436988   6.2717788  15.4337647  59.0943016   6.1036904  15.9948499
  15.2392022  64.9588665  69.3331261  15.8242233  65.2643347  70.0830919
  14.8869603  65.8945342  69.1227263  30.7676013  69.4970608  73.8533387
  29.9416805  69.9394313  73.6471054  30.4784802  68.5660837  73.5356220
  69.6768156  28.9256780   6.2006350  69.5856496  29.7410992   6.7270784
  70.5896699  28.6659920   6.4135287  76.2335052  21.2397421  19.7711177
  77.1745638  20.9269823  19.7460029  75.9853970  20.8343046  20.6861588
  25.2066514  71.1861457  71.9399759  24.5084508  70.4510925  72.0237853
  25.8257366  70.7150794  72.5721161  22.4486188  59.8369622  76.3076498
  21.5165599  60.2575431  76.2753841  22.5241723  59.8819750  77.2822001
  67.2690310  32.4748280  14.4984169  67.9462124  32.3404825  13.7589042
  66.4726545  32.3856596  13.8986011  21.8618565  49.7959435  81.0421172
  21.9284743  49.0885181  80.3632547  20.8765486  50.0312559  80.9378840
  24.4460936  56.7708914  67.7567113  24.0031272  55.8998220  67.5793623
  24.5409793  57.0437997  66.8038514  22.3930975  56.8624832  78.4043105
  22.9958771  56.3414593  79.0301055  22.2899672  57.6729700  78.9262219
  78.8103216  26.7554908  17.9259426  79.4024481  27.0583822  18.6581650
  78.1027165  26.3302118  18.4182982  74.3216305  38.7037104  18.7483663
  75.0862388  38.6304350  19.3628775  74.7405364  38.6894445  17.8672090
  74.5351571  26.5932552  11.3390133  74.6233076  27.4898606  11.7567022
  73.7908758  26.2680067  11.8742860  75.5135086  31.3277523   9.9674011
  75.4963628  32.2236473  10.3322981  76.4666804  31.0969024   9.9908207
  60.5990504  34.4554959   8.1090245  59.7815429  34.9906918   7.9890467
  61.1228353  35.0559152   8.6865272  68.3275053  19.3155628  27.4840317
  68.9699528  20.0270962  27.6655521  67.7395150  19.4023530  28.3135697
  66.0244055  27.9259962  17.0429274  66.4277360  28.5697748  17.6676126
  65.8913748  28.4493587  16.2383857  75.8949504  24.0743399  20.9432129
  75.0613377  24.1834946  21.4068296  75.6171022  23.8165382  20.0591835
  17.0043757  56.6522131  68.9418017  17.7670188  56.2572780  69.4126552
  17.2405254  56.3082396  68.0193227  29.5372555  52.9794844  81.2192088
  30.0414928  52.7687366  82.0371721  28.8968246  52.2488339  81.1892407
  63.0788466  22.2607673   9.7023233  63.6706474  22.5561202  10.4196193
  63.4996908  21.4226434   9.4289211  62.2268429  18.9607142  12.7690954
  63.1435122  19.2570117  12.7515159  61.9073328  19.2135178  11.8760906
  73.3398931  18.8079268  21.5862263  73.5626816  18.2246407  20.8213226
  72.8013201  19.4766954  21.1415475  67.0409278  39.0218552   2.9136855
  67.2253400  38.6821945   3.7889361  66.7328269  38.2000119   2.4665372
  74.4270206  30.4305928  24.6911871  75.4105221  30.6338290  24.7742870
  74.0966444  31.2902975  24.3521223  65.8031149  37.0227016   9.8376199
  66.0431422  36.9666142  10.7690863  65.8192430  36.1099232   9.5118779
  66.8510736  31.0122501  23.9975938  66.3009341  31.0919863  24.7950225
  67.6713007  30.6791912  24.4030064   5.0604375  40.1000719  17.4406973
   4.9030391  40.9003361  16.9297582   5.5736957  39.5673450  16.8000504
  60.2101554  28.9030499  12.2781414  61.1576103  29.1258938  12.0184337
  60.3370536  28.7137310  13.2170994  70.7332809  34.2425543  12.2776555
  71.5365813  34.6248063  12.6787581  71.0857039  33.9831282  11.3928625
  76.9085215  17.4930991  19.2932684  77.5203612  16.7708483  19.4089239
  77.3944327  18.2704318  19.6385129  67.7688070  22.5813294  12.9803008
  67.5666475  22.2607711  13.8695815  67.0985277  23.2120590  12.8024190
  62.7109604  32.3128921  19.4939699  62.0562659  32.3652016  18.7509735
  63.5272163  32.6163298  19.0575643  25.6759332  67.3322547  66.1905408
  26.2963354  66.5577460  66.0109463  26.1184653  68.0150425  65.6477458
  74.4857892  18.4524110  17.1126928  75.0226120  18.7848160  17.8204978
  74.0459177  19.2908049  16.8075701   1.3346286  27.7766388  19.3553843
   1.5152169  28.1068180  18.4529766   1.9389582  28.4208095  19.8367610
  78.7520994  38.5456505  19.8520476  78.9600752  37.6213918  19.6357776
  77.7840248  38.5144789  20.0210703   5.3393652  26.9739755  16.1290313
   5.6195673  26.1992120  15.6407610   4.4221222  26.7190492  16.4243484
  30.1753671  76.4233707  66.8002956  29.7258883  76.2075454  65.9809033
  30.7295154  75.6796984  66.9472400  28.5355632  67.7716489  70.2497676
  27.5088670  67.5922582  70.0668610  28.3601707  68.0750890  71.1749616
  79.4840868  36.6780536  11.4611927  79.3410605  37.3747042  10.7651442
  80.4489029  36.5209191  11.3968962   0.0581025  33.7457952  18.8553116
   0.6418359  33.3805295  18.1531978  -0.4901498  32.9427981  19.0760902
   1.4685835  39.5868370  14.1601660   2.1221944  38.8894398  14.1392224
   2.0768159  40.3423876  13.9684701  74.7596511  40.9569499  25.3439479
  74.4569280  40.7359980  26.1720943  73.9111080  41.2157229  24.8550779
  26.5111815  72.4395963  69.8528016  26.0196250  71.8136947  70.4902017
  26.2281585  72.0552461  69.0336670   3.4612913  32.6678990  13.1761941
   3.3519642  33.6412763  13.3557640   4.0643185  32.6996904  12.4304376
   2.6883864  41.0730345  22.8155539   1.9295661  40.8752523  22.2480951
   2.9826381  40.1833277  23.0379618  62.9757042  10.8499298  60.7911906
  63.2437885  11.4486786  60.0422540  62.0222825  10.7159555  60.5298759
   5.0325112  49.2985402  11.0057597   5.8840912  49.8132563  10.8765321
   5.4483326  48.5071185  11.4726762   2.7015376  30.5378596  14.6832739
   3.3439725  31.0585635  14.1042866   2.9307356  29.6381582  14.4318046
  78.7405027  47.3732036  17.0868371  79.7345507  47.2549061  16.9308023
  78.5423446  47.6823958  16.1511047  68.1273343  47.0375002  13.7953067
  68.7068987  47.4929667  14.5091914  68.7761511  47.0867567  13.0406186
  34.2248963  67.0468781  71.7990652  34.8204582  67.6661910  72.3246982
  33.5454523  67.6798497  71.4788267   6.0155320  42.4911375  20.2588033
   5.4666653  41.8334918  19.7698983   6.7154419  41.8906854  20.6464631
   1.0876955  30.1778309  64.2690418   0.8324834  29.3018482  64.7902194
   0.2760404  30.1509124  63.6960886   9.7890454  51.9451043  59.0012948
  10.1177489  51.0324616  59.0408212  10.7222764  52.3877246  59.0429631
  72.2256796  27.1694387  62.7609513  71.6522188  26.4269401  63.0815548
  72.9253166  26.6575196  62.3003329   5.8260720  34.4458024  63.3497242
   5.5149372  34.8566576  62.5391759   6.0092772  33.5436800  63.0370474
  -0.0151749  40.2010345  60.7335614   0.7473356  40.1663055  61.3227024
  -0.2907926  41.0855404  60.7511939   7.6630076  41.1222651  57.9588482
   6.8593896  40.5974157  58.1264263   7.9385753  40.7720216  57.0971313
  12.9974026  41.7976661  56.9862605  13.1101820  40.9030348  56.7963932
  13.6909463  41.9543662  57.6927481  79.6113723  55.1913131  48.5086792
  78.6870073  55.0992427  48.2592188  79.6236218  54.8350799  49.4307955
   3.3554936  37.6958721  61.6384150   3.4958634  37.1040411  62.3997380
   2.8313210  37.1265125  61.0452536   1.8495799  42.1462820  70.1400719
   1.8900540  41.8842657  69.1835276   2.7865644  42.1098788  70.3401221
  79.4563518  36.9418896  63.8649857  79.5400841  35.9744560  63.9045660
  79.3263803  37.1182517  62.9338789   8.0608771  37.3864801  63.1952292
   8.2863976  36.9770883  64.0991956   8.7816616  38.0135023  63.1077506
   5.4402950  39.5890588  53.7964778   4.6062484  39.6419602  53.2456699
   5.7440173  38.6887250  53.6301026  12.3315477  25.0853540  57.7391703
  12.1486591  24.2618526  57.2367370  11.3879658  25.2788552  57.9779538
   0.7833772  39.9766922  58.0981744   0.4311940  40.2387157  58.9651768
   1.6732350  40.3025507  58.0806666   7.3451047  41.9055506  51.0867240
   8.0257795  41.3367666  51.4491955   6.8821924  41.2555047  50.4442136
  31.5005168  77.4608067  18.6729500  30.8909022  77.0415122  18.0285040
  32.3714530  77.2963867  18.2437376   3.2801267  49.5412071  67.7932021
   4.1275670  49.4723553  68.3205839   2.8015511  50.1456870  68.3983376
   3.1667268  57.8618448  56.3538207   2.8664385  56.8934494  56.3273857
   2.5000319  58.2509054  56.9393497  55.6276313  23.5846484   3.3245477
  55.5297242  24.5147200   3.3833409  54.7723325  23.2547759   3.0334069
  58.4040005  19.8115883   1.7637877  57.7656433  19.1641184   2.0053146
  59.1419952  19.1983620   1.5830568  60.4431344  16.8215594   6.9312714
  60.1430735  15.9009483   6.7331004  61.3155342  16.5580959   7.4090665
  15.3964326  38.0298625  54.8605790  15.3839835  37.0432027  54.7572772
  16.1760223  38.1258070  55.4459609  55.6179500  23.4548221  -2.1914009
  56.4898821  23.1472198  -1.8845716  55.0659893  22.7964334  -1.6229269
  13.5883136  51.8767976  55.7435101  12.8156744  51.5024558  55.2153322
  13.1822914  52.7315895  55.9358621  54.6552296   5.7946542  11.3725952
  53.7818882   6.0007718  11.7325925  54.4885349   5.7504156  10.4445014
  10.0649414  42.1545551  47.7000491  10.0595286  41.4358693  47.0626898
  10.7706814  41.8901026  48.2723414  77.8986480  41.3960820  69.1724592
  77.9021324  40.4421042  69.3444427  78.4751799  41.7768160  69.8498271
   4.6938063  47.3154050  64.7227420   4.2407350  48.1835909  64.8144878
   3.8943843  46.7420897  64.5924130  17.9698230  53.5554219  73.6418232
  17.4386449  53.2909028  74.4170818  18.8638370  53.4545082  73.9820211
  19.2884806  55.7203219  47.8358706  20.0194428  55.2127229  48.2975172
  19.7544594  56.5686851  47.7436617  13.8101222  46.4469457  54.3194166
  14.2805031  45.6910401  54.7562780  13.1917542  46.6384064  55.0587267
  15.6021891  60.6772553  61.1574891  16.2371810  60.1107206  60.6817525
  14.7967246  60.4847723  60.7383662  53.6809042  18.5183733   7.0766398
  53.3426070  17.7743911   7.6284920  53.6990441  18.1052103   6.1980823
  14.9708424  50.3674419  60.4621263  14.8427753  50.7770290  61.4108733
  15.7284622  50.9364127  60.2116086  50.6932111  18.7011714   0.6997731
  50.5566037  18.8857609   1.6687484  50.2738916  17.8361449   0.6754540
  62.4610332  28.1595238   2.8468063  62.8941017  27.6267512   3.5609931
  61.5541876  27.8820067   2.8576729  13.5671496  47.5776246  63.0409089
  13.1231845  46.6994813  62.9044145  12.8244278  48.1915646  63.0081458
   2.0999309  50.3795069  51.7753583   2.8118266  50.8437195  52.2568101
   1.8751700  51.1459019  51.1503887   9.9365960  33.8520751  67.0894810
   9.3158025  33.1488682  67.4430187  10.4021360  34.0195508  68.0011652
  15.6993926  58.2628389  50.6902654  16.3273386  57.5156483  50.3706506
  15.2013908  58.3417805  49.8399843   8.5010274  36.6124767  65.8781791
   8.9352435  36.0180741  66.5603014   7.7482210  36.8867948  66.4047316
  10.1006555  46.4669722  64.1910315   9.5921542  47.2928945  64.0452636
   9.7713136  45.9912431  63.4310950  78.6993544  39.1044888  72.3350431
  78.8941658  39.9016324  71.7925310  79.5611570  39.0604100  72.8859578
  67.1459021  31.9878719   6.4244079  66.3991402  32.4013686   5.8769574
  67.7902174  31.7660671   5.7086160  18.5007219  65.6399820  50.1036683
  19.1219752  66.1542147  50.6573908  17.9834091  65.2258001  50.8797135
   9.7965358  62.7688224  63.9829989   9.2667280  62.6040476  64.7741591
  10.4301139  63.4329366  64.3324637   8.1006913  59.5517920  63.1554537
   7.8602621  58.6571751  62.8352620   8.1257546  60.0563955  62.3360243
  16.5709245  60.8567907  68.5724054  16.7171470  61.1387497  69.4970872
  15.8601389  60.2001763  68.5710742   3.5019804  45.8793456  60.6022215
   3.7511859  46.1056031  59.6542872   3.9428683  46.6883564  61.0458563
  75.7016115  43.1759864  60.0757125  75.7979083  43.1901487  59.0680771
  76.3250885  43.9091021  60.2920469   8.4942240  60.4185200  55.5778293
   8.2647002  61.4123619  55.5639444   7.7839214  60.1648309  54.9737652
  70.7657190  49.6754294  53.3246920  69.8025664  49.8138055  53.6306809
  70.6110156  48.8691967  52.7761227   4.2734141  51.9855229  53.0385805
   4.8392171  51.4700481  52.4117470   4.7852174  52.8289524  53.0628055
  72.2624302  59.2164787  48.0620602  72.8089250  59.9911368  48.3837311
  72.2389297  59.3885650  47.0787458  11.9258928  54.1744703  55.4006059
  11.1450783  53.5154154  55.2530048  11.5895389  54.7590391  54.6561253
  12.2045545  40.7260029  70.3549385  12.9146480  41.0668877  70.9837379
  12.7724001  40.1514876  69.7910232  62.2720466  30.7472350   1.1900873
  61.6723986  30.8807679   1.9734744  61.9434497  29.9605048   0.7924673
   9.6845294  44.8160092  66.7805371  10.3162186  45.2434371  67.3859574
  10.1427976  45.0574808  65.8883665  58.7946081  14.7704370   6.6011682
  57.9344914  15.2563964   6.8424192  58.6911161  14.0260656   7.2318562
   0.0344234  58.6824195  55.1304462  -0.1261226  57.7981082  55.5388978
   0.5033715  58.3697636  54.3300480   6.9983251  56.8809735  53.5760336
   6.5558292  57.7440046  53.6480478   7.2808389  56.7182864  54.4773537
  15.9541595  53.8832685  59.8379450  16.5909509  53.1441002  59.6160963
  15.2906850  53.4311238  60.3301433  67.1687897  27.1954747   7.1719568
  67.9543585  27.7512109   7.3576890  66.5190595  27.9121637   6.9368783
   6.3854466  65.7680798  58.1811084   6.1385091  65.0594543  58.7909914
   7.1144146  65.3686817  57.7179491   2.7450750  52.7551526  46.2604073
   2.6803712  51.7878884  46.0898765   3.3976268  52.9515363  45.5473808
  12.5854216  47.2853202  52.0206487  12.9042954  46.8205706  52.8131353
  13.0745745  48.1319478  52.0502825  14.8541112  51.3506107  68.7700019
  14.8093081  51.4023852  69.7731635  13.9527938  51.3342641  68.5411689
  61.6930950  24.9883391   7.5144388  61.3209867  24.6744455   6.6564954
  60.9340076  25.3518278   7.9313121  50.9873677  32.0637043  -5.2395327
  51.8446742  32.3578094  -5.6434560  50.5392245  32.9622045  -5.1531121
   5.1489142  50.3856637  62.5340478   5.2282604  51.3564406  62.5780732
   4.7669051  50.2212286  63.4389807   6.6437358  63.3169375  49.8443682
   6.6060898  63.5265894  48.8588630   6.7424627  64.2898495  50.1374840
  12.5959325  57.5130319  63.3428312  11.6838687  57.4483979  63.2925736
  12.7380293  57.8956248  64.2237435   3.2952633  42.6950569  66.3176522
   2.6856553  42.0644072  66.7887210   3.4048800  42.2123732  65.4677737
  50.4708536  27.6266754  -3.5966017  50.6513573  28.1177274  -2.7291687
  49.5881000  27.2373399  -3.3176760   3.4100809  64.6150146  50.1926914
   3.6786175  64.1169995  49.3915914   3.6839504  63.9555778  50.8931841
   5.6472978  65.9095141  53.9210970   4.7544674  65.7945108  53.5921257
   5.4866003  65.9595964  54.8579739  77.4459310  62.7012410  50.1038622
  78.2299241  62.4286990  50.5378960  77.3100002  61.9692411  49.4543595
  79.0436964  42.8941726  61.2494322  79.3062382  43.5633224  60.5666812
  79.3277026  43.3813107  62.0469435  12.7009428  46.6441235  56.8936216
  12.1047152  47.3097095  56.5372471  13.0052392  46.9464327  57.7224958
   3.3100725  41.0111083  58.2987241   3.7665401  41.3915773  57.5102371
   3.1505578  41.8746236  58.7772904   4.8804032  59.7892676  63.5610009
   4.7515810  59.7196110  64.5056860   5.8317237  59.7711679  63.4832273
  75.5325078  50.6541724  57.2142302  76.1786915  50.7074530  57.8871659
  74.7328059  50.5579804  57.6958335  52.4278134  25.4901597  -3.9376786
  51.8503839  24.8086313  -4.2807658  51.7500334  26.2152104  -3.7506588
   5.1951791  61.3368773  60.8731811   6.2030138  61.1924006  60.9394683
   4.9322902  61.2380312  61.7723632  11.1788121  48.6303971  55.8074046
  10.3445501  48.7430773  56.1919011  11.4323128  49.4677936  55.4465051
  20.5484704  70.9833517  56.7351319  19.8015218  71.3485137  57.2182662
  21.3173772  71.5914523  56.9973372  12.3012486  61.9715092  52.6539780
  13.1298759  62.2631501  53.0956336  12.5306319  61.8872262  51.7448883
  16.5002982  57.2023165  65.7400015  16.9115980  57.9125753  65.2187346
  15.7732221  57.7232415  66.1149081  78.9211579  60.9368318  52.5516350
  78.0785311  60.6320577  52.1599988  79.5295329  60.2235157  52.3202867
  18.5831934  55.3990872  66.9626996  18.6277932  54.4781716  67.3223683
  18.4131404  55.1906266  65.9993153  17.2544347  56.6798919  72.3937922
  17.7778320  57.4835449  72.1575881  17.9993473  56.1295834  72.6581497
  10.4115049  54.8284928  67.0177031  11.2630648  55.1333014  66.5897391
  10.2364624  55.6061699  67.6099348  69.2535695  37.3096256  55.6019932
  68.5558379  37.6594848  55.0039284  68.6970959  36.9520511  56.3211111
  74.9565969  61.6331594  50.7310207  75.4655408  60.7818997  50.8369002
  75.7434046  62.2237833  50.4356305  10.3583954  49.6352029  50.4108432
  10.3280022  49.8669339  49.4245159  10.4204585  48.6480952  50.3291054
  52.3795096  13.2420730   3.7634283  53.2653493  13.3215841   4.1611314
  52.0151976  12.5024111   4.3002895   8.1692328  68.4082815  57.7130588
   8.7975565  67.7943103  58.0839839   7.3717769  68.2391005  58.2519396
  12.3497465  61.3069796  60.0457263  11.8033927  61.2374656  59.2776983
  12.7441826  60.4038326  60.1137101   9.2379173  39.8560262  63.2350255
   9.5602863  39.7125486  62.3443309   9.4395689  40.8005537  63.3537831
   7.8973094  52.1808811  53.1351161   8.3183261  51.8601877  52.2747812
   7.0862129  52.5763846  52.7770223  14.4186577  33.0850942  60.7531785
  13.7749477  33.5737421  60.1645168  13.9337065  33.1704909  61.5569618
  16.9713400  43.8992478  58.9477211  17.4228278  43.7739491  59.8519526
  16.6108319  44.8050489  59.1357142  26.7780464  64.8801096  59.7350448
  27.0904433  65.2294213  58.8570626  25.8236108  64.7611734  59.5966078
  16.4452719  52.0319045  56.7669392  16.2436364  52.9950604  56.8261771
  15.6749564  51.7318976  56.2534549   4.1296974  45.4451086  57.7690707
   3.7438415  45.3136514  56.8754213   5.0521054  45.4285618  57.6433019
   2.7953581  40.6441440  61.3461453   3.0834445  39.7333579  61.3656038
   3.1117367  41.0122167  60.5480349  12.5666936  44.4108033  49.5182327
  11.6957656  44.2743382  49.9853077  12.4430520  45.3529792  49.2406814
   7.0049334  67.0110108  61.6997371   7.4725940  66.4723260  62.4374941
   6.6279475  66.2594958  61.2218679  11.2436052  56.6236727  48.1900736
  11.4446574  57.4112780  48.7531289  10.4442099  57.0182830  47.6915466
  11.2784292  45.7043471  60.4219418  10.9424002  45.4790144  59.5374311
  10.6310297  45.1874439  60.9649201   9.9517698  42.9537309  52.3824624
  10.4038812  43.2939597  51.5941111   9.0668113  42.7436980  52.0407903
   7.0757485  44.4788578  58.3726792   7.2364452  44.8788154  59.2961899
   7.4196670  43.5816230  58.5151607  11.0731475  65.0992376  65.5425854
  10.4608699  65.4170861  66.2793233  11.8936648  65.0102320  66.0208990
  16.9604927  52.6163903  64.1749228  16.3953216  53.1706728  64.7976903
  17.7418826  53.1262473  64.0558607  15.8306192  54.5409919  65.6540780
  15.2311593  54.4897883  66.4632820  16.1506906  55.4324905  65.7047072
  16.6057734  53.2255980  49.4673973  17.1377947  52.6012643  48.8477734
  15.9235686  53.4079626  48.8087382  13.2860839  58.6674827  60.7454976
  12.9432459  58.0495663  61.4032990  12.9678340  58.2919966  59.9297830
  10.8699560  67.4442683  52.6989952   9.8869194  67.2732783  52.6877172
  11.1093957  67.2111792  51.8267868  20.0095243  51.7765706  51.8944080
  20.0004909  51.3008989  52.7666851  19.1492263  52.2750327  52.0092110
  73.4892650  50.4652288  51.7871426  73.9731278  50.6568052  52.5881027
  72.9151252  49.7371358  52.1095321  18.1180672  31.8862688  62.0098247
  17.8345474  32.6999966  61.6068461  18.9250224  32.1982881  62.4458322
  22.4508420  64.5193756  67.9946047  22.9582932  64.8200836  67.2086673
  22.8758663  63.6462988  68.1397542  14.2641177  69.5971510  65.5350182
  13.9440718  70.0375995  64.6954163  13.4923931  69.1633193  65.8723214
  23.7355075  73.5518702  64.1669272  24.2178463  73.9899755  63.3740990
  22.8455906  73.8262446  63.8838032  46.3616704   3.6178483  64.9263100
  47.1929130   3.9603091  65.3395208  46.4201029   2.6827684  65.2233730
  30.9054386  72.0302068  56.3321296  31.2055299  72.1472222  55.3880003
  30.4532464  71.1243010  56.2316457  31.5477403  69.1862524  51.5317989
  31.1329572  68.4781746  51.1325482  31.7481470  69.7658830  50.7641454
  38.0340714   3.7156719  45.1454222  38.5783776   2.9449937  44.8330422
  37.1686432   3.3265287  45.2652159  68.2786829  34.7647889   2.6014677
  68.2478262  33.8700204   2.0734612  67.5843065  35.1989851   2.0324054
   7.6169140  55.5286383  66.5305931   7.4756016  55.5143212  67.5080118
   8.3968018  54.9872683  66.4894405  15.1000602  62.7043670  48.6158440
  15.8659144  63.0513409  48.0753717  15.2083806  63.2702277  49.4111131
  20.4149338  59.2350395  73.6362805  21.1991831  59.7970957  73.8860711
  20.5933587  58.4724668  74.2513094  34.8246309  -1.6117986  57.6230989
  35.1861110  -2.0727133  56.8375766  34.2011215  -2.2096320  58.0225783
  46.9486726   0.6998564  65.1384515  47.8199089   0.5991761  65.6303371
  47.1929107   0.1265316  64.3330860  29.5967898  70.3313177  60.7555412
  30.5056218  70.6136179  60.7671934  29.2463140  70.7387213  61.5845904
  23.9961655  76.1237412  69.4331829  24.6110141  76.5460882  68.7897200
  24.1208829  76.6269867  70.2053945  28.6983445  70.8879252  72.5169283
  28.4854581  71.8822199  72.5703052  27.9088581  70.5487624  72.9812821
  18.7908757  71.9900149  65.7511063  18.4517121  71.1536888  66.0775500
  18.7352859  71.8707366  64.7861718  17.4607667  64.1701546  68.0572719
  16.6574082  64.3489048  68.5712063  17.3468444  63.1897982  67.9812526
  12.1793048  70.7124469  58.7288842  11.8606411  70.9356234  59.6210687
  11.3331548  70.7784096  58.2243776  30.2750775  69.7339200  64.1335616
  29.3971824  69.5408203  63.6797901  30.4084083  68.8609526  64.5933160
  24.0199472  64.3802850  58.8584747  23.6030250  64.6771062  57.9916143
  23.3174336  64.4418170  59.4871764  11.5616454  64.0820493  58.0294080
  12.1451054  64.6974970  58.4648183  12.0664238  64.0222797  57.1947715
  11.8295356  68.8177896  46.8931580  10.9403270  68.7641947  46.4242515
  12.1763589  67.9485089  46.6469162  13.1452512  65.4573088  62.4513691
  12.8853643  64.4846981  62.5215744  13.6065500  65.5383560  63.2695966
  23.9513624  60.5397101  66.1195224  23.1290042  60.3339686  65.5698747
  24.5950976  60.5692708  65.4224982  62.3728809  15.9772910   8.5827267
  61.9233378  15.6671925   9.4089561  62.8151966  16.7930416   8.8557310
  21.2953623  74.0982656  62.7215894  21.2886464  74.9243331  62.1388867
  21.2918087  73.3885690  61.9918129  21.4347920  72.4895081  60.5692113
  21.1508298  71.6546034  60.1651490  22.4257227  72.3893908  60.4327630
  35.0253655   9.3720252  59.7586294  34.8849120  10.1434569  60.3008443
  34.1520613   8.9707241  59.6848010  19.0102711  65.2473383  71.8886137
  19.7919417  65.3554048  71.3065263  19.4614282  64.8885544  72.6891555
  25.8612131   9.7060434  60.8486578  26.3314764   9.6219978  61.7355466
  25.6731512   8.7466725  60.6916781  73.0900886  23.6539842  11.5828132
  72.5470652  23.7029640  12.4018585  72.4573889  23.9726514  10.9372827
  27.1761813   0.5917801  39.0029334  27.7971145   0.8038944  39.7202717
  27.7071609  -0.1891773  38.5969570  61.3735615  19.3528598  10.1585781
  60.9738403  19.9984899   9.4802997  62.2309898  19.2229739   9.6836327
  34.4481388   0.1042628  48.6540407  34.9499552   0.8401344  49.0309448
  33.6160645   0.5048473  48.4705718  34.6029721   0.8616859  62.9242903
  34.8292684   1.7669303  62.7696774  34.2627416   0.5542928  62.0385160
  24.6289432  74.7047435  61.8935637  24.9037281  75.5746387  61.5321686
  25.4751588  74.2057906  61.8062839  46.3519046   3.1799824  43.3560431
  46.7446401   3.7557727  44.0561258  45.4563127   3.5420264  43.3283820
   7.3432639  62.7806085  62.3969921   8.1401675  62.7242367  62.9566122
   7.8187631  62.7634986  61.5108916  14.0069687  62.2073285  63.4739891
  13.8066882  61.5793901  64.2074326  13.1991291  62.1355159  62.8937135
  12.7917345  61.8562726  49.8592391  12.1381724  62.4561238  49.4103368
  13.6136438  62.1650519  49.3764395  51.9526901  23.4015914  -1.8591200
  52.2417839  23.5048812  -2.7662994  51.9066553  22.4375586  -1.7088829
  47.1581521  11.0423926  60.3784332  46.2420595  10.9625290  60.7506818
  47.0161733  11.7753979  59.6848953  36.2317359  -2.8806273  46.6641424
  36.4429050  -2.9954631  47.6589377  36.4388069  -3.8322691  46.4048991
  47.8142347   9.7391439  50.6972534  47.1766482   9.2251155  51.2807247
  47.1358782  10.2409516  50.2085423  19.5247536  61.5504968  58.8434399
  18.8374609  60.8685835  59.0390984  19.0637403  62.1278710  58.2208499
  13.3750535  63.4936902  55.8487681  13.1000051  64.1428208  55.1315143
  14.3344128  63.4553791  55.6258198  14.5433803  67.1618718  56.8090376
  14.4594201  67.3063250  55.8260971  15.3471499  66.6111569  56.7961396
  44.1797177   3.8933539  67.6735234  44.4171678   4.7973517  67.9384463
  43.2275974   3.8762478  67.8752561  41.7044631  11.6678015  48.4305058
  41.8185949  12.6373897  48.5594943  42.4571564  11.4633713  47.8104192
   5.4420654  60.6888415  49.1788980   4.7551662  61.2122507  48.7680023
   5.7263741  61.2597122  49.9185475  11.7726897  63.1863781  61.9177870
  11.8588172  62.6984632  61.0927254  10.8620652  62.9380250  62.1749687
  50.5512284   4.9327559  63.5224035  49.9976313   4.5511682  64.2553122
  51.2294190   4.2112017  63.4539780  42.5634582   1.4615014  65.6163750
  42.2849178   1.6686209  66.5679018  43.3019550   0.8252953  65.7968516
  18.5041844  59.0448416  71.7768185  19.1232986  58.7182900  71.0730986
  19.1619259  59.3475442  72.4586498  22.6775437  71.5417440  68.2639020
  23.4610621  71.4027466  67.7137613  23.0532838  72.2195500  68.8770701
  17.1445427  68.1701231  49.8193826  17.6042327  67.3394743  49.8653683
  16.8041177  68.1594466  48.8948108  20.5203196  58.2461422  69.6768139
  21.4339750  58.6290436  69.6058819  20.0157275  58.7571523  69.0678101
  67.1573712  43.0292259  10.1832420  66.8206667  42.2594703  10.6825368
  67.2965459  42.5818341   9.3236653  34.1323543   0.1319963  59.5722013
  34.3240127  -0.5399524  58.8586636  33.2026821  -0.2474751  59.7842616
  35.8265764  -1.5618120  62.3111570  35.4814513  -0.8144229  62.7700333
  36.6709550  -1.7100773  62.8675520   5.2763291  63.8813222  59.7471672
   4.9232334  63.7358586  58.8585888   5.1293579  62.9251643  60.1314022
  14.7420825  55.5776408  71.3507007  15.6753871  55.4995098  71.6288809
  14.5800629  56.5334158  71.5413644   5.5043950  69.3218354  48.7603795
   6.1353536  69.0680050  49.4393395   5.4273498  70.3070140  48.9654976
  26.8864642  69.5068043  64.9125405  27.1897785  70.0088381  65.7112146
  26.2570736  70.2143972  64.6134778  15.2198986  66.2140481  60.9875238
  15.1726464  67.0935479  61.4287078  14.4600935  65.8046109  61.5336420
  61.1414831  25.4833609   4.5221018  60.6641819  26.2954038   4.7146147
  62.0837657  25.7479165   4.7479009  14.2797783  60.2803876  47.1230031
  14.4734825  59.5083585  47.7417148  14.8467988  60.9638017  47.5162513
  16.5778303  62.6557992  62.4432097  15.7760982  62.5987629  63.0039655
  16.2586096  62.0473839  61.7377628  36.9573955   0.7167342  58.8921708
  37.1368667  -0.2021641  59.1395155  35.9863987   0.7092673  58.8645757
  33.7013194  68.3237051  56.0707220  33.6405919  67.5016372  56.6334921
  33.0205380  68.1796516  55.4331295  26.0703725  69.2025706  49.0982601
  26.6483953  69.6825136  49.7408557  26.4473049  68.3544215  49.0424222
  72.6182643  39.3072051   8.3669619  72.1122430  39.7299228   7.6615186
  72.0216700  39.4131007   9.1419728  16.7045277  61.7914752  57.9570619
  16.2002061  60.9624248  58.2470999  16.0962762  62.4547551  58.4845819
  23.1908160  61.0338717  57.6822680  22.4272087  60.5117394  57.4396997
  23.4700724  61.4742266  56.9104392   7.5729987  68.3814457  50.5519546
   8.4251367  68.2527142  50.0936341   7.6588542  69.3613342  50.7490955
  14.1951919  55.3828611  63.3052673  14.6905117  55.2239098  64.0815394
  13.6713189  56.1836302  63.4553504  25.4594940  47.6853992  67.8586594
  24.8741148  47.7748965  68.7059135  24.9235023  48.3228887  67.3190089
  21.6354774  60.4781973  64.5117761  20.6886246  60.3826016  64.3427861
  21.7965519  61.3783243  64.1429276  69.5160574  35.7815565   8.6089342
  70.1542105  36.2792120   8.0417504  70.0769843  35.4262842   9.2958202
  11.1015257  66.6481435  55.9696725  11.3665726  66.3946589  55.0969592
  11.7155619  67.3326401  56.2625528  52.4977541   4.1646234  65.9552910
  51.6565641   3.6813969  66.1028831  52.2121508   5.0955516  66.1635515
  19.9371408  52.9676716  69.6916969  18.9946905  52.9045446  70.0670558
  20.1834536  53.8643339  69.9487101  25.2187710  66.5730328  52.8111540
  26.0019783  67.1707591  52.5779499  25.7164702  65.7198879  52.8859757
  27.9538006  74.1472541  60.4561423  28.5142661  74.9472953  60.1421966
  28.2552352  73.5286242  59.7230070  14.2858488  58.6282428  54.9194073
  14.5920795  58.8994850  55.7747605  14.9192872  58.9993198  54.3009977
  19.2460199  59.6077912  64.3606736  18.2788800  59.4758727  64.2964510
  19.4221966  58.8561303  64.9165712   9.1960543  60.7909851  58.3235698
   8.7255522  60.5230091  57.5259250  10.1312555  60.7453447  57.9945034
  12.4948372  47.1486289  49.3807424  13.2624047  47.6947844  49.1353082
  12.5262911  47.2527361  50.3364759  20.7690897  64.7732681  64.5020878
  21.6738005  65.0500343  64.3997696  20.7519966  64.0191216  63.8224859
  38.7543786   3.7726171  41.9312628  37.7996003   3.7994793  41.8089281
  38.9670604   4.6156164  42.3689147   3.3473555  62.0520718  55.2277790
   2.3661956  61.8503042  55.2516700   3.6680729  61.1358310  54.9375589
  46.2754822   2.1254948  58.4275705  46.2680570   2.2311554  59.3837877
  45.2563229   2.1310331  58.2459753  18.2442509  47.7541278  62.2846277
  17.2719233  47.5342807  62.1837361  18.1448562  48.6879477  62.5776109
  45.7794303   2.5863588  51.6549576  46.6756627   2.2490173  51.5236075
  45.2868637   1.7594196  51.8254390  51.5510046   3.2299871  57.2552256
  51.9272320   4.1106220  57.5232411  52.1653194   3.0209701  56.5324345
  25.5555236  61.7887796  59.0155336  24.9565715  62.4985198  58.9008238
  25.0170118  60.9986945  58.7493221  21.4154908  70.8960398  50.9476967
  20.7805691  70.1492203  50.8518398  21.4751321  71.0099790  51.9282591
  58.0242251   6.7928999  59.9584725  57.0626798   6.8176826  60.0620941
  58.2811024   7.3924685  60.7359809  17.0865309  65.2159261  57.8075050
  16.9163192  64.6839299  58.6140120  17.5313857  65.9815528  58.2037050
  76.8610097  60.0570062  55.5068721  76.6196670  59.6488678  56.3719323
  77.8524349  59.8392767  55.4986159  13.0621829  50.2170726  58.6576601
  13.8057241  50.3416175  59.2948447  13.0179166  51.1553545  58.3469863
  71.9139855  42.9544365  11.7601312  71.1675733  43.5445062  11.9404400
  71.7801994  42.3035411  12.5008673  41.2315271  66.7517575  69.2774798
  41.4672958  67.5026257  69.8284845  40.2632734  66.6707875  69.4788402
  28.8356825  73.8230542  73.0931999  28.0017185  74.1601672  72.6774543
  29.5172016  74.2338078  72.4559772  25.4606062  70.8059464  56.2080493
  26.3503268  70.7839515  55.8084061  25.2679498  71.7689607  56.1403184
  22.7718400  68.2208356  66.1803478  23.7858178  68.0592191  66.2489037
  22.6997278  68.0447626  65.2314272  22.7487391  74.2527838  49.3578749
  22.5557943  75.1044166  49.8723454  23.6707641  74.5084821  49.1099189
  39.4726955  68.3301137  64.1866584  38.6171765  68.7208176  64.3989334
  39.4751483  67.5427822  64.8434178  70.3485242  13.9615308  63.6860742
  71.1907382  14.3835605  63.4727118  70.3011391  14.1280650  64.6953619
  33.5713264  75.2973556  64.3475302  33.0727338  74.8068549  65.0231274
  33.5220380  76.1779505  64.7398201   5.8890486  38.2731143   9.2311061
   5.9956283  39.1472792   9.6001366   4.9709187  38.0840515   9.2148575
  34.3854228  63.2104115  63.8837360  35.0872045  63.5290497  63.2553109
  34.9221552  62.6833113  64.4966168  57.1158028   5.3613421  66.1446736
  57.0805634   4.8561266  65.2568609  56.1537207   5.3174705  66.3007521
  37.6002004  67.2842417  58.1180423  37.2459833  67.4124008  58.9940520
  37.9003209  66.3191630  58.2038540  28.8267379  72.8209620  58.1163763
  29.4272150  72.1859225  58.5929305  29.4589595  73.0586876  57.3691361
  35.9958740  64.5033076  53.2708723  36.2216894  64.0806140  52.4511867
  35.4894537  65.2581560  52.9184335  33.0669415  67.3865185  59.8466667
  33.1223565  66.8241783  59.0846860  32.7171119  66.8004364  60.5547545
  18.2791230  72.8151816  53.1357034  18.8034053  72.0475578  53.3796620
  17.3928054  72.5117428  53.0292974  23.2565286  38.0432221   1.1252693
  22.9144269  38.9342378   0.9117240  22.5717357  37.5281016   0.6217960
  48.8674272   5.8354331  51.0777798  48.8435470   5.0369852  51.6578058
  47.8912777   5.9584126  50.9695815  45.3202047  72.5971411  61.7791501
  45.5006263  73.5466780  61.7630736  44.6919096  72.5655778  61.0071018
  70.5114299   8.5432386  50.4501595  71.2280478   8.7346162  49.7693782
  70.5018769   9.3467073  50.9701443  56.6297657  65.5099903  29.8054529
  55.8447805  66.0543038  29.7279347  57.3840186  66.2298815  29.6593861
  54.4015114  80.7748914  35.9037424  54.0066879  81.4442534  35.2727379
  54.4336714  80.0273934  35.2786034  79.4114392  21.3166568  35.5268410
  80.1586195  21.4952278  34.9562203  79.4411374  22.1217335  36.1146300
  13.4638371  16.0674938  50.5109789  14.1815412  16.6802988  50.8502457
  14.0049685  15.6558348  49.8037925   6.9886542  21.5809158  33.8008157
   7.7305318  21.2483759  33.2686787   6.3388810  20.8776916  33.7342095
   6.6409303  27.4439755  29.2959408   7.5657113  27.7115697  29.5848196
   6.5094933  26.6459805  29.8739956   4.3784814  17.8176034  50.9926946
   3.7167058  18.3148557  50.4255193   3.9823282  16.9555758  51.0259937
   1.1101108  19.7903091  55.0098897   0.7319261  19.7128404  55.9064477
   1.1820308  18.8277082  54.7594334  71.5451973  21.1598021  53.1356566
  72.1498298  21.8385194  53.3670858  71.6996056  21.1273894  52.1329253
   2.7701921  32.0623728  54.7269378   2.3338851  31.9614363  53.8654036
   3.5401467  31.5053275  54.5671782  41.2968308  43.5947300  -4.5220782
  41.3299246  44.4888180  -4.0811208  41.3241805  43.0221139  -3.6837622
   9.1201902  23.1896526  49.2915895   9.2335877  23.9709614  48.7751478
   9.1579368  23.4427928  50.1991596  72.2708415  19.7380362  62.8499483
  71.5023323  19.5185116  62.3051506  71.9277014  19.6125195  63.7588461
  76.8984810  12.8227469  50.9156385  76.2911242  13.0482090  51.6360538
  77.5721565  12.2745572  51.3248700   7.7456006  17.5206908  55.7554165
   8.0821534  17.3417674  54.8373575   6.8013162  17.6850353  55.5455508
  50.3949486  84.0420709  43.3770600  50.6427534  83.1705476  43.0492694
  50.1775056  83.9381291  44.2809837   4.6417019  11.0468488  36.7241154
   5.2235217  10.3453395  37.1052011   5.2038742  11.3476620  35.9747022
  13.4184650  34.0457246  44.3043854  13.8995502  33.8150044  45.1713422
  12.4762847  34.0261515  44.6097577   0.4738029  34.2191546  56.7644510
   1.3836697  34.4187088  56.4631686  -0.0411861  34.8167525  56.1744308
  33.5029111  70.4070656   8.9237830  33.4190895  70.6852471   7.9683563
  34.0013847  71.1433119   9.3204418   7.2563679  46.7803492  44.7765575
   7.6820649  47.3788969  44.1818026   6.3976509  47.1655740  44.9460874
  14.7244023  27.8099631  62.3294485  14.5110978  28.8129051  62.2699347
  14.3802982  27.6607437  61.3595712   9.8160375  12.1138034  46.2755208
   9.1546322  11.5933826  46.8340948   9.2895641  12.9023979  46.0398959
   3.5956553  34.3542199  32.5641450   4.1375999  33.7927611  33.1416661
   3.4787074  35.1349441  33.1918540   9.6388219  31.2063409  39.6734321
   9.0239069  30.7650001  40.2273071  10.2183298  31.7332269  40.2009745
  16.4449695  38.6043989  39.1456106  16.3869285  38.1860391  40.0075234
  16.5368273  37.8087589  38.5384983  11.2471109  33.4474497  50.9550327
  10.7360216  34.1635566  50.4782577  12.1428096  33.8351166  51.0269867
   5.9324334  32.3542759  31.5130766   6.8546076  32.0247743  31.4743684
   5.9006866  32.5928956  32.4624963   3.4320880  30.7612741  50.0208714
   3.7461475  30.7587947  49.0629844   3.0959305  29.8259406  50.0893871
   6.9334685  26.3600311  48.7131912   6.7484662  27.2805930  49.0441321
   6.9278515  25.8872589  49.6047186  17.2262986  28.5162244  39.5590982
  16.6053175  29.0743292  39.0950112  18.0325128  29.0803733  39.4872746
   6.0937839  27.5527486  60.0436204   5.6301015  26.6861032  59.9222250
   5.3489230  28.1640045  60.0188654   5.5514369  23.3847641  49.0973210
   4.9722218  22.7878032  49.5478256   5.7761218  22.9183244  48.2913111
  76.9120373  31.6373239  55.8420079  77.5218964  31.8545118  55.0914996
  77.6204295  31.6202737  56.5551217   1.1024777  37.0103876  49.4721773
   1.5360593  36.2524640  49.0937917   0.3168672  37.0890787  48.8810047
   7.1769033  30.5093238  64.4079862   7.8518695  31.0754424  64.7545016
   6.9872454  30.8185318  63.5057279  13.9547232  38.0034033  47.2538267
  14.0901101  38.7980541  46.6063735  12.9444146  38.0605442  47.2079271
   7.2549599  28.8552487  38.7112952   6.8057704  29.5816683  38.3637234
   7.4616319  29.1460760  39.6561959   8.0534385  28.0016000  63.7100769
   8.9172974  28.3798986  63.3543692   7.5408625  28.7624492  63.9661548
   5.1576552  30.5695773  53.7655987   5.0058395  29.8441028  53.1627550
   5.4514875  31.2780953  53.1473376   1.9315389  24.7562256  46.8546954
   2.1832317  23.9418533  47.3600260   2.6945217  25.3178677  46.8919424
   5.3624947  33.1450353  44.7950384   4.4083970  33.1715559  44.7776407
   5.4922833  32.4173507  44.1257248   7.4772435  42.4233863  47.3135235
   7.3096103  41.4797689  47.1801768   8.4821351  42.3956280  47.3991211
  11.4059734  26.7481952  61.0011327  12.1437758  27.0359778  60.4192631
  10.9213658  26.0863219  60.4957742  12.0344683  42.2749678  54.0135172
  12.6896336  42.7864160  53.5285753  11.2377700  42.4513375  53.4540324
  16.0484834  20.2641428  60.2232130  16.5339634  19.7618208  60.8925264
  15.5051022  20.8561555  60.8296248   8.3178967  39.6692541  37.8468308
   8.8298567  40.4394585  37.7950568   7.4773617  40.0258267  38.1762544
  12.5401206  23.8639951  39.7523647  12.4341584  22.9757483  40.0840661
  12.5063209  24.3846753  40.5329301   2.4641774  42.2822820  63.3862218
   3.4091361  42.4830812  63.4363638   2.5067508  41.6696348  62.5675191
  31.7893280  65.4193204   3.8535062  32.3121267  64.5342533   3.9143756
  31.4219176  65.3383601   2.9812347   9.9859207  25.7692848  44.0541881
   9.9651776  24.8276868  43.7069490  10.9609254  25.9323659  44.1719923
   8.9309567  40.0470784  51.9686361   9.0080796  39.1037297  51.7880290
   9.0205892  40.0612352  52.9296576   2.6650022  19.1317703  48.9120070
   2.0339452  19.2860559  48.1305764   3.2602578  18.5223514  48.4734951
   6.0953434  38.2592197  60.2081732   5.4442721  37.6025174  60.1199617
   5.9247302  38.7430082  59.3322189   8.9658643  34.3566755  59.7053322
   8.0861706  34.0015698  59.5208206   8.7031383  35.1939981  60.1601199
   4.7474161  27.3719514  65.9881066   4.3957832  27.6604853  65.1387860
   4.8434795  26.4303435  65.8847862   6.1809511  30.3120753  44.2502599
   6.1480402  30.2283812  45.2801538   6.0189979  29.3508123  44.0096325
  78.7666410  29.2677661  45.9312446  78.8633866  28.6798943  45.1055991
  78.8610814  30.1185478  45.4401256   4.1794371  26.0917644  47.4507502
   5.0883311  25.8653422  47.3587231   4.0639678  25.9875570  48.4317206
   5.9641029  22.7773432  57.6255597   5.6347425  23.4575814  58.2516651
   5.1531301  22.3092742  57.3983581  11.9861956  24.0876697  63.4250324
  12.6848324  24.7630141  63.6681891  11.8960572  23.7261545  64.3641819
  11.9134991  28.2292408  25.1582902  11.8072816  29.1759400  24.8365630
  12.7136229  28.3339822  25.6712512   8.6973267  17.7112858  41.9614564
   7.9739609  18.1786546  41.4638180   8.9080114  18.4577429  42.5924172
   1.6695850  29.8528690  35.5872671   1.5248004  30.4171892  36.3382388
   0.7825880  29.5899998  35.3211296  12.6901259  44.5320672  42.4368352
  12.0340022  45.2679583  42.4636285  13.3728136  44.9190893  41.8479454
  14.1888037  24.0056118  46.0973463  13.9867085  23.0736188  46.3718624
  15.1049341  23.8296564  45.7604150   6.8898433  19.9282539  57.2762645
   7.5713420  19.4403941  57.7585890   7.1839529  20.8789867  57.4253795
   1.2124557  40.9497554  35.7845406   1.7078879  41.5682354  35.1853368
   0.3826323  41.5148512  35.8464778  77.7689210  44.2019951  41.0273726
  76.9128890  44.3426170  41.4443239  77.8201071  45.0116961  40.4746977
   3.7119819  29.4093287  40.1796497   2.7591296  29.7339219  40.0497145
   4.2044197  30.1387558  39.7597830   0.2019020  27.9091161  32.9442950
  -0.0051769  27.1663926  33.5002040   0.3822288  27.5792889  32.0713531
   1.2815597  42.2501894  33.1415503   1.3281447  41.3466650  32.7093523
   2.0324018  42.6313860  32.6654998  22.4866944  28.5479722  49.9167154
  21.6733766  28.6410275  50.4361198  22.6600646  27.6141515  50.1423361
   3.9870201  30.5881897  47.3931835   3.6771948  29.8449786  46.8170811
   4.9501922  30.5989892  47.1588037   6.5265143  32.0845083  51.5098525
   7.4837580  32.0720467  51.5299039   6.3660160  31.1329791  51.2538165
   6.7245281  23.1958765  53.0714732   6.6032368  22.4182793  53.6139720
   5.9537190  23.7550292  53.4005654   4.6551158  36.8038968  38.0468435
   4.9614936  37.3269343  38.8017157   4.2000746  37.4929530  37.5278363
   5.4369776  37.7720722  40.3803695   5.8712201  38.4169335  40.9218523
   4.5453938  37.6962905  40.8250129   8.3803739  40.1548558  32.5956957
   8.9005282  39.3565530  32.7369838   7.6942307  40.0631658  33.2813931
  74.0143103  29.2146650  48.1098450  74.6681311  29.5917059  48.8075545
  73.3125318  29.8564398  48.2979386  12.5579221  27.2872603  53.1934369
  12.1655374  26.4095931  53.6370636  13.0135252  27.6101667  54.0322270
  14.3171759  34.6566731  37.0207824  14.6137923  35.2471821  36.3056715
  14.8095580  35.0103862  37.7986191   2.1610891  37.7628829  56.9898078
   2.2401927  37.6583170  55.9750444   1.8507402  38.6757594  56.9695785
  14.2406111  30.9288179  43.9503241  13.9393739  30.0978720  44.4580231
  13.3973223  31.2719223  43.6177457  16.0289095  20.1519532  57.4748541
  15.9143216  19.8874124  58.4832716  16.1769286  19.2360606  57.1185196
  13.2370832  33.1215747  57.6056582  12.5706629  33.6521170  57.1023355
  13.9835315  33.7287403  57.5984611  13.1583941  35.3838483  48.2705223
  13.7136611  35.4033547  49.0919202  13.2872125  36.2857364  47.9557991
  19.6855577  24.7374759  62.4285698  18.9932714  24.6898437  61.7408488
  20.4695098  25.0596142  61.9970409  78.6473466  42.6776643  35.8658936
  78.7664450  43.6430646  35.8605788  77.9435003  42.6406952  36.5574898
  10.1032234  34.8772175  36.9998522   9.5274145  34.1216945  37.3155338
   9.4096353  35.1965936  36.2912966  12.9267078  38.9559636  40.7275881
  13.5539445  39.7419774  40.5625069  12.9392825  38.5531285  39.8261024
  70.7485146  37.2945281  41.1305924  70.5310834  37.5138900  40.2140831
  71.3235969  38.0627590  41.2941409  18.7150012  38.1474371  61.5712472
  18.1054340  38.0335819  60.7779377  18.5953439  37.1871338  61.9344623
  18.8783644  39.0525537  51.2266753  18.7643365  38.1020031  51.4224879
  18.2104919  39.4688266  51.8855111   7.1648655  44.1229207  49.4853137
   6.7402523  43.8330789  48.6716622   7.2124465  43.2783136  50.0210688
  78.2682343  41.3227013  44.3806881  77.5802723  41.1240472  44.9940164
  78.2847021  42.2901863  44.2833983   1.4645837  24.4636723  52.8099651
   1.1398705  25.0747407  53.5254588   1.4935303  25.0892960  52.0868429
  16.0731704  37.4310847  45.7688303  16.7699682  36.9146182  46.2503071
  15.3661777  37.4063858  46.4722016  11.7847508  30.9668207  57.8977114
  11.5184917  31.1578898  58.8469739  12.3576417  31.7596584  57.7112215
  13.8081489  42.5346483  47.9133194  13.4930559  41.9153771  48.6181724
  13.5537465  43.3809773  48.3388798  75.1834195  27.5636125  46.4131925
  74.6332787  28.2333037  46.8781298  75.7061141  28.0591465  45.7561455
  10.5154263  35.4336586  48.8828648   9.9378734  34.9591062  48.2246261
  11.3449748  35.4274304  48.4361345  12.7381371  41.6335823  37.8167827
  13.3708093  41.2316065  38.4457859  11.9024532  41.6398681  38.3041680
   9.9065972  20.9379853  45.6371064   9.2572723  20.4408459  45.0515051
   9.2604654  21.5848322  46.0277280  16.7707552  20.2556930  48.3223171
  16.0484172  20.2280018  49.0154822  16.6052317  19.3673487  47.9113841
   8.5163486  50.7187118  46.7539979   8.6060633  49.7582079  47.0290676
   7.6772914  50.9336901  47.2059721   6.3757979  44.1590854  39.6076877
   7.1242078  43.7755673  40.0832168   5.8734182  44.5781580  40.3120309
   4.1351368  23.8900010  62.2008624   3.4153631  24.0597069  62.8214815
   4.6364942  24.7662226  62.4405190  13.3081110  39.8042396  44.9258450
  13.2648269  40.1378744  43.9946239  14.1587805  40.2153005  45.2191141
  15.7586391  36.3177682  69.9165407  16.2995086  35.5153327  70.0054675
  15.6586804  36.3875025  68.9410674   7.3641429  53.9187407  62.2551404
   7.9016230  54.1264901  61.4891093   7.4818297  52.9421787  62.3552069
   2.3377212  33.0566392  41.4473062   2.9211558  33.8274960  41.2228331
   2.9215617  32.3525316  41.0241531  74.2476278  34.6470961  53.3900892
  74.4901512  35.5240586  53.1519763  74.6868723  34.5136011  54.2641371
  14.7533453  30.7901647  47.3962427  15.1029249  31.1771732  48.2622372
  14.3172308  31.5626512  47.0226471   9.6376355  46.9109225  52.6053126
   9.6727601  45.9564113  52.7263814  10.6258058  47.1455061  52.5672004
   3.1520922  38.5278248  47.9374715   2.3718144  38.6464617  48.4670097
   3.8124447  38.9856430  48.4106071  34.1310220  45.9710029  -4.4130396
  34.0040801  46.8855531  -4.7388262  33.3502080  45.8262525  -3.8503841
   3.2458484  25.1610895  40.1927881   3.8929527  25.8021370  40.5105865
   3.5368154  25.1173030  39.2505834  16.2391754  26.5126840  40.8720291
  16.6948463  27.2975389  40.4130689  15.3600990  26.9451547  40.8678062
  37.0582067  62.3598308   5.2384450  37.1537399  62.7673710   4.3311925
  37.0358768  63.1334581   5.7790576  76.5011201  15.6003553  48.6927292
  76.3955591  15.7779603  49.6527134  76.4517715  16.4256029  48.3188192
   4.7880378  42.7475568  37.8017263   5.0832628  43.5992918  38.1237160
   4.1544379  42.4475982  38.5291279   3.0438960  15.8409062  36.8776789
   2.8426097  16.3796244  37.6692655   3.3144686  15.0059779  37.3709978
  74.9159504  19.2271439  59.5651240  75.2362665  19.3349757  60.5059979
  73.9585687  19.0567301  59.7609689  20.8160697  31.9266069  39.2675535
  20.3324570  32.6303485  39.7589643  21.7315834  32.1342128  39.5392204
  17.3104501  43.6132438  39.9994697  18.1231133  44.2249389  39.7456498
  17.8083135  42.8084388  40.1294706  12.0294801  31.3448703  42.2376147
  12.6679843  31.7873353  41.5896408  11.4101992  32.1062232  42.3404199
  68.0818037  44.7656022  50.0910106  68.4849327  43.8727826  50.0910922
  67.9140557  44.8457887  51.0496694  14.8640406  36.2710690  43.4871644
  15.3000299  36.4786802  44.2897257  14.2482100  35.5626553  43.8001123
  20.0154260  47.9144695   0.4650490  19.4075510  48.1074487   1.2246595
  19.3361762  48.1109359  -0.2445075   2.8649876  44.9729939  51.8155632
   2.1892665  44.7251409  52.5018359   3.0432515  45.8817440  51.9397253
  12.5405146  36.0409678  60.1989008  12.6218552  35.2849511  60.8053309
  11.9723133  35.6645613  59.4584804  79.1035839  33.0339436  41.9074921
  79.2835568  33.9827722  42.0934205  79.8701540  32.8536318  41.3233001
  79.1115817  31.7999799  57.5167641  79.7673938  31.1794059  57.7270505
  79.6126525  32.6302411  57.3800294  75.0180609  19.5285531  62.3207230
  74.0416426  19.5730267  62.4197116  75.2147689  18.7059868  62.8228591
  16.9734906  34.3957077  61.2658040  16.1559513  33.8586642  61.3066131
  16.9663583  34.5952324  60.2808492  23.1723357  24.8592074  41.8635971
  23.8363809  24.1723237  41.6740737  22.3485133  24.2966642  41.8859760
  17.2147104  29.4446143  50.1453560  16.4955668  29.3072462  50.7368745
  16.8547873  29.2229436  49.2831154   7.3182878  20.4500986  54.3115112
   6.4455671  20.4366105  53.9220668   7.2041585  20.3131740  55.2567491
   9.3227156  23.7073559  51.9738178   8.6707776  23.5615467  52.6694836
   9.3664318  24.7292942  52.0934784  74.7775562  32.8664853  32.9591155
  73.9655202  33.4018604  33.1855138  74.3593066  31.9436581  32.9075729
  10.2466998  28.9597403  62.5514913  10.7758393  28.7919615  63.3841547
  10.6472948  28.2460351  61.9802800   3.6635301  21.5614421  49.9889342
   3.4314317  20.8265044  49.4098337   3.1197465  21.3524684  50.7609653
   1.1545485  41.1206102  48.4876169   1.4706476  41.9992352  48.7906889
   1.1394739  41.2793908  47.5188700   8.2828743  32.7300026  54.0853095
   8.4747083  32.3333100  53.1705524   8.4088550  31.9151681  54.6117766
   6.6226785  25.9027008  51.3098366   6.6932345  26.3253236  52.1389592
   6.9631570  24.9564176  51.5395468   5.6568730  35.5385536  35.6513219
   4.8519320  36.0296857  35.3373410   5.5836421  35.6274629  36.6323910
   8.6672600  23.0138726  56.2830967   8.4423358  22.6793920  55.3717170
   7.7557871  23.0131470  56.6433893  13.1134793  22.0933650  52.6085999
  13.1145646  21.4833781  53.3509523  12.6546621  21.5345663  51.9461674
  13.7239336  22.1384976  65.2916739  14.3760437  22.1513506  66.0018321
  13.0783822  22.7716624  65.7226609   5.2873557  24.5686391  65.4483721
   6.0159225  24.8073769  64.8990489   5.4146999  23.6116506  65.6523520
   3.0732089  24.7173844  37.2072422   2.8515073  25.6873241  37.1293865
   2.4004214  24.3878584  36.5562977   6.5575385  30.2398200  46.9942181
   6.8203989  31.0894913  47.2805645   7.0900562  29.7049272  47.6602434
  79.4561395  30.4687319  51.0236135  79.6040662  30.1317840  50.1247967
  78.7791735  29.8375956  51.3488906  28.1100588  61.0320607   5.2745711
  27.1424999  61.0473219   5.5174505  28.1050502  61.7716064   4.6304432
  74.0438987  30.6448491  35.5926651  74.2783909  30.7755223  36.5338657
  73.6372202  31.5295711  35.3607857   8.4164941  30.2484953  55.6026508
   7.9428882  29.3631070  55.3822916   8.2815011  30.2616027  56.5547818
  18.9725609  17.1351584  46.5813649  19.0582309  16.2866641  47.0294582
  18.1051238  17.3788840  46.8474257  75.4966923  29.6480973  54.2324956
  74.6436856  30.0340011  54.1097783  75.8278188  30.1441359  55.0055686
  10.9533329  33.5934263  45.3511900  10.3338239  33.8363218  46.0447401
  10.4303493  32.8240055  44.9574743  14.2449454  21.4034303  46.6534817
  14.8045868  21.0946135  45.9100746  14.8615319  21.5018639  47.3745208
  12.5148828  31.0990716  53.3526179  11.8473969  31.0682535  54.1314554
  11.9711675  30.6357494  52.6673895  15.1910117  29.9553541  32.1836047
  15.1862921  30.8224827  32.6785286  15.2909477  29.3057595  32.8430911
  79.3464877  35.2628277  39.2247059  78.8854735  35.4241577  38.3416812
  80.2199262  35.0478419  38.9300415   6.4243615  22.6702075  39.7094342
   5.9075976  22.6365336  38.8977183   7.2563017  22.2804115  39.4744616
   8.9937383  25.3571981  47.5105557   9.4398079  26.0868716  47.0372897
   8.2500054  25.8642222  47.8803948   9.6149827  52.7587438  55.2101776
   8.9745634  52.4398646  55.9473967   9.0260375  52.6265832  54.4712450
   7.9289619  37.4638976  45.5461640   8.6165172  36.9683906  45.1232923
   7.3867139  36.6915474  45.9177244  19.5903856  25.2586791  69.5496436
  19.8467279  26.1679783  69.8483136  20.4872449  24.8568926  69.5869991
   6.7716525  24.4972305  33.5530355   6.7623341  24.8187943  34.5222992
   6.9525422  23.5885447  33.6678810   2.4609492  33.0851942  44.4283838
   1.6199994  33.4707698  44.7723629   2.2310797  33.1101651  43.4310370
  73.0108698  10.9151101  29.2386517  72.2705792  10.2496341  29.1196856
  73.5872007  10.7525300  28.5136294   7.8021847  56.7119725  56.1078649
   7.2074864  57.4907878  56.3996966   8.6855413  57.1033503  56.2669161
  16.0483622  46.5213688  56.4417555  16.4190779  45.5584179  56.3524623
  15.7801542  46.4383621  57.3874753  14.7895206  57.9921660  40.9442952
  14.7690444  57.0851449  40.6310956  15.7308288  58.1680720  41.0293786
  18.4044615  54.6108638  43.3967758  18.0961867  55.0016581  44.2813700
  17.9787205  55.2130789  42.7841698   7.4658455  42.5435732  37.0734205
   7.9412894  43.2173102  37.6115713   6.6231817  42.5646001  37.5636300
  11.5186140  50.8220199  54.1760129  10.8129446  51.4853631  54.2126968
  11.7145789  50.8308128  53.1828511  20.4479316  41.1613716  52.4254765
  20.1429635  40.3123562  51.9894070  20.4670417  41.7148164  51.6455966
  13.8154370  43.1743422  35.5371936  12.8997603  43.0422345  35.8396119
  14.2675301  43.1169936  36.3674180  10.7219512  46.6323582  47.1900933
  10.1707570  46.7651488  48.0525725  11.5785004  46.5772161  47.6213058
  20.4677842  53.2213302  49.5231065  20.2416174  52.5176976  50.1684230
  20.1336181  54.0128255  50.0200789  21.8316317  34.2984802  56.0326264
  22.6570416  34.6422715  56.4360005  22.0063015  34.4592277  55.0862948
  10.9594989  50.1508422  47.8977114  11.6911021  50.6833543  47.4412119
  10.3122010  50.0899587  47.1229219   4.3361445  52.1098856  28.8261922
   4.5244567  51.7321254  27.9431481   5.2515246  52.4286211  29.0616657
  13.9716768  44.3535467  52.2470167  14.4095096  43.7682815  52.8688824
  13.8807507  45.1878283  52.7335542   5.4512642  46.9122716  52.1775524
   4.6958436  47.3260416  52.5648414   5.4455822  46.0654380  52.6915602
   4.1788944  63.0703342  48.1323508   4.8411093  63.4793436  47.5390639
   3.3988497  63.3530527  47.6951612  16.8057715  27.3706163  59.0973038
  17.2676773  26.5173535  58.8952697  15.9203506  27.0801249  58.7575492
  20.0134957  58.4404205  59.0788899  20.0632560  57.4213721  59.1612102
  19.4872160  58.6263286  59.9063256  15.5050520  46.6084410  65.0018426
  15.4999483  45.6843998  64.7654116  14.8848669  47.0320337  64.3990084
  21.2042327  39.2306779  58.1920279  20.9151279  38.3368396  58.4534771
  21.1778223  39.7451463  58.9707692  14.3235633  52.7069802  42.9376589
  15.1446509  52.5479520  43.4340736  13.6796754  52.8114140  43.6429696
  10.7626337  46.3174584  42.4979877  10.5693409  47.2685336  42.6125275
   9.9811837  45.9978846  42.0119992  16.1106868  38.9835448  48.5310218
  15.9549986  38.9539615  49.4658594  15.3959787  38.4716994  48.1455652
  17.1842817  38.0356769  59.1825639  17.3854097  38.8323615  58.7442913
  16.2446490  38.0520322  59.3835583  10.7160220  48.2171212  44.8289698
  10.8873269  47.2732821  44.5322190  10.5885312  48.0203897  45.8072785
  78.4221657  47.9633223  44.9588211  79.1068988  47.8539491  44.1621131
  79.0576184  48.3685223  45.5823991  19.9691116  61.6622291  50.8714386
  19.3089390  61.1413578  51.3517498  19.8776648  61.3001485  49.9747256
   3.2653900  35.4536892  53.4695555   4.1884813  35.2179601  53.5723305
   3.2088278  35.3894579  52.4743612  14.8295001  54.9481605  40.5599733
  14.3066535  54.9664307  39.7177549  15.2572892  54.0273682  40.3729168
   7.5731986  45.5613723  60.6841404   8.1807210  46.2657968  60.9122796
   6.9196109  45.6056054  61.3871857  12.8419999  53.3353145  45.0366571
  12.2747059  52.7317083  44.5627374  12.3509104  54.1002139  45.2263551
  10.6583379  37.3527335  51.3263396  10.1154503  37.1055232  50.5451864
  10.2385417  36.8709017  52.0457216  16.9827106  44.1061172  56.1351285
  17.0683839  43.9454148  57.0897119  17.8738184  44.1999162  55.8914984
  18.5142144  29.5277978  73.0391606  18.9593231  29.0938606  72.3406903
  18.2171186  30.3178182  72.5592423  16.9743904  58.5083556  60.2173617
  16.4192630  57.9715274  60.7650140  17.7420423  58.6775115  60.8290688
   3.7335606  60.0575856  44.7895678   4.3457644  60.3612927  45.4750142
   2.8769996  60.0399226  45.2770918  14.3905418  53.3198276  47.8000816
  13.6775621  53.5427835  48.4647709  13.9076968  52.5698202  47.4018371
  19.9462023  33.6159351  57.7892322  20.6073359  33.8800971  57.0859989
  20.1948808  34.3009492  58.4723106  16.9629844  39.6833653  53.4686571
  17.5340458  39.3593167  54.2302979  16.1760879  39.1737238  53.5785404
  74.6477647  38.9677933  55.7987916  75.1192012  39.7289111  56.3423731
  75.3822180  38.3617322  55.7993153  15.6454132  44.7048775  50.0207138
  15.2432646  45.0742515  50.7916553  15.6860094  43.7326240  50.3414770
   9.4439334  41.7004476  28.2049902   9.0462347  42.5313764  28.5945063
   8.6151189  41.2790753  27.8459449  20.5878227  52.4105129  47.0795913
  21.1500587  51.6065891  47.2765963  20.3721228  52.6340959  48.0239475
  12.0626990  39.5195530  51.6850777  11.9264657  39.5582329  52.6721560
  11.5490478  38.7186789  51.5037834  16.8999790  49.2293653  48.8076484
  16.8324610  48.4089870  48.1945119  17.8115376  49.4622311  48.5660324
  18.7257421  38.7956303  48.5079821  18.8885342  38.9957031  49.4578578
  17.7649905  38.6114210  48.5177192  11.5433314  53.6198267  51.7047432
  11.7259735  53.8288218  50.7770089  11.4536872  54.5361606  52.0799482
  14.4061211  48.5869868  48.1376679  15.2862812  49.0368507  48.2454356
  13.9415368  49.2544158  47.5810512  21.2234069  49.7646342  50.5677360
  21.1245803  49.2618653  51.4621653  20.5857693  50.5044190  50.8462229
  24.5102432  51.4698019  47.0844460  24.3881073  50.5757361  46.7523936
  24.5492507  51.2932612  48.0557904  16.3571856  39.2449313  43.4744745
  16.1828140  38.7181400  42.6803299  16.0645722  38.7075281  44.2427296
  15.4823962  34.7126763  57.1147841  16.2250158  34.1889389  56.7692883
  15.1287544  34.9623670  56.2599191  10.6802454  52.0034322  42.5831718
   9.8318095  52.5208846  42.3592409  11.2604424  52.4864970  41.9577909
  15.1566609  40.8764355  46.4728636  15.9446979  40.6934345  47.0206352
  14.6395165  41.4322448  47.0932172   5.8071759  54.3650899  52.8960800
   5.7476106  54.4195703  51.8936814   6.1679502  55.2089282  53.1112983
   6.0883976  34.2290427  53.1905643   6.3772251  33.4897966  52.6144762
   6.6037365  34.0255871  53.9906848  13.7477430  47.9636749  40.7868912
  14.0943341  48.8438812  40.9355862  12.8853410  47.9446744  41.1650840
  18.9725152  42.9957843  53.9069812  19.4809200  42.4319967  53.2879450
  19.4288284  42.7348154  54.7350380   2.4318688  47.5248702  49.2149589
   1.7331975  47.0870976  49.6934828   2.9358921  47.9420965  49.9477509
   5.9729989  36.9370882  52.8722987   6.1720954  36.0112820  53.0076755
   6.6455839  37.1717509  52.2417695   8.7540852  48.9334613  63.7097666
   8.3162863  49.2990765  64.4767021   8.0174916  48.4961571  63.2394493
  14.5581584  30.7340600  59.1277932  15.5157575  30.6074964  59.3001795
  14.3457642  31.4580806  59.7430150  17.2988511  51.6007868  60.1874707
  18.0556026  51.8198062  59.5577122  17.7241172  50.8892401  60.6292234
  15.9269425  50.0619736  45.5565893  16.4371666  49.9824274  46.3774620
  16.5508960  50.6279026  45.0345083   5.1719203  62.6480934  37.2977291
   5.9488002  63.2661753  37.2812248   5.0890441  62.5513855  38.2762775
   9.7737626  44.1005618  49.7232795   8.7981833  44.1035427  49.7799821
   9.9362703  43.4659723  48.9830793  15.9113212  32.0793106  49.4721266
  15.5463402  32.8605094  49.9470325  16.7696460  31.9522119  49.8952221
  15.0980274  30.1115867  52.5114190  14.7102721  29.2800921  52.1104919
  14.3051620  30.3934147  52.9749586   5.4559012  39.3197031  57.5205020
   4.5417892  39.5377458  57.6296290   5.4334151  38.6849731  56.7540039
  12.8835133  65.6718916  53.9476358  12.5887421  65.8230351  53.1066352
  13.5851615  66.3684650  54.0694438  12.1035616  39.4817790  54.2721157
  12.2677820  40.4698789  54.2773586  12.3553885  39.2484994  55.1639695
   1.2259049  45.8530355  38.4729418   0.9186429  44.9427515  38.7535248
   1.6967635  45.5619334  37.6433685  21.2254576  45.1695684  59.4632911
  20.9350670  45.6090079  60.2844160  20.5650345  45.6363684  58.8476995
   6.2971569  51.8879455  60.0819686   7.0218249  51.4120903  60.5477216
   6.4326213  52.7691374  60.3527862  28.7361185  70.8110802  46.3669423
  28.6942020  71.8031198  46.6964407  27.7688400  70.6538271  46.5287142
  18.8782512  53.6165224  54.4852958  19.3514230  54.3190737  54.0364051
  17.9676654  53.7100493  54.1497950  14.8336913  45.6323626  47.4544487
  14.8405433  45.4093962  48.3933505  15.1566771  46.5156937  47.4843381
  19.9811848  49.7678454  61.1348344  19.4682378  48.9980233  61.4071561
  20.8511716  49.4106487  61.1089292  17.5638023  55.5144462  45.5962373
  17.9715092  55.4815377  46.4879464  16.6164489  55.5684070  45.8114663
  18.1337104  57.6848381  43.8137599  18.3900722  58.3662040  44.4536548
  17.6039085  57.0535186  44.4062063  22.4122866  28.6460048  71.9314889
  22.7098764  28.6930559  70.9931711  21.4200918  28.6512428  71.7983622
  13.5684956  47.6285237  59.1912600  12.7712775  47.3307754  59.6643279
  13.4159080  48.5910462  59.2059866  19.0703462  59.8174549  45.2514216
  18.4274814  60.5625045  45.4602840  19.9027749  60.3227403  45.1729102
   3.1092543  40.1329617  52.4405766   2.6924807  39.2468655  52.3347015
   2.9415765  40.5338220  51.6172881   8.8552191  62.8273663  60.1636052
   9.2533530  63.5700292  59.7118734   8.9528113  62.1075077  59.5440836
   2.4576356  34.0434701  63.1926171   3.2490174  33.7293129  62.6810073
   1.7520832  33.7659235  62.5161134  18.1777257  36.1657444  75.1646422
  18.0094337  35.3878479  75.6970031  19.0912944  35.9352200  74.8851201
   9.5612874  63.0438454  44.1553739   9.0282862  62.4378689  44.6877280
   8.8103637  63.5786507  43.7328367   3.0189574  52.8160452  56.5457510
   3.6838419  52.2073792  56.2063430   2.2295541  52.2346696  56.5178507
  12.4031974  52.9575667  59.1142150  12.5368989  53.8702011  58.6759117
  12.9081415  53.2117130  59.9456664   0.3557109  36.3972953  58.4723329
   1.1639643  36.6860522  58.0143780   0.2280796  35.4830572  58.0350051
  12.2662424  66.3024614  45.8906246  12.6576333  65.4234024  45.8087469
  11.4208632  66.1718484  45.4196711   0.6565722  44.4681420  59.3133467
   0.3186819  44.0878575  58.4247037   0.9481864  45.3436358  58.9384003
   7.8079786  49.2038073  43.4332945   8.7240487  49.2859732  43.7252691
   7.4032635  50.0359886  43.8005734  19.5603517  49.5470344  48.3628883
  20.1849230  49.6718789  49.1718190  20.1828245  49.0321765  47.7854387
   4.5410046  44.6686535  44.0736596   3.6323517  44.3177347  43.9474017
   4.9080982  43.9412363  44.6233214  20.2460519  61.8187021  42.9486583
  20.1827106  61.3167260  42.1049605  19.2401768  61.7453334  43.1899950
  17.1691065  40.3450784  58.0192551  16.3975950  40.9825760  57.9573797
  17.8602762  40.8702094  57.5819130  10.6685461  35.7380532  58.1754970
  10.0035103  35.2513943  58.6810882  10.8013938  35.2386492  57.3634984
  17.1427202  51.9902644  43.6853291  17.7077544  52.7742656  43.5400501
  17.6241564  51.3427206  43.0868391   8.9447376  41.4450536  60.6179917
   9.8175943  41.7831909  60.2615621   8.4313886  41.3934306  59.7800103
   2.5725816  60.6815716  59.9094060   2.3367062  60.5226684  60.8735659
   3.2042984  61.4180077  60.1420802   7.7548265  28.9325900  48.9888670
   7.3208036  29.1999109  49.7645114   8.5913420  28.5807573  49.3165496
  18.3360018  62.1598060  46.2275312  17.9326350  62.8837757  46.7876577
  18.4652250  62.6381175  45.3927122   1.3809308  41.0849066  67.4899937
   1.1130856  40.5917279  66.6494306   1.1824601  40.4280626  68.1554679
  11.9348421  40.5355473  49.1981386  12.0538856  39.6466570  48.7653609
  11.8236190  40.3103301  50.1436990  14.4899691  39.1104110  50.7464897
  14.5520690  40.1320794  50.6481752  13.6692751  39.0861674  51.2232585
  12.7572922  57.9876597  51.7283362  13.6949516  57.9813706  51.7124805
  12.5316607  58.3090124  50.8370760   7.7120701  56.9687683  62.4259021
   8.0884734  56.0417783  62.3715072   7.5660580  57.1317369  61.4739564
  15.2331857  57.7547798  47.7551649  16.0255827  57.2421523  48.0160827
  14.8919146  57.2441467  47.0055174   2.1237983  55.4171209  51.6818094
   2.5449889  55.6573774  50.8219594   2.2528371  56.2677499  52.1662858
   4.3897322  41.2458778  48.5992075   4.5216256  41.9203642  47.9034229
   3.7621475  41.7308214  49.1962039  78.0995432  48.2034994  51.9553957
  77.1912068  47.8745796  51.7066795  78.0651703  49.0673148  51.4052682
  18.1267287  25.1873914  58.0495264  17.6502070  24.6329726  57.3433683
  18.9952423  25.2670216  57.4974371  11.7751129  50.6361890  44.5712606
  11.3595032  50.9246573  43.7105246  11.4058688  49.7256805  44.6064494
   5.5066892  44.8467019  53.8938755   5.9400813  45.0595748  54.7333222
   5.7981297  43.8726425  53.7921446  18.0726975  52.1925187  47.4761972
  18.8928364  51.8034334  47.7450636  18.2117358  52.4909830  46.5498801
  18.0979271  38.6260623  55.4473036  18.3965407  37.8914269  56.0800924
  18.9629009  39.2150323  55.6096816  12.3126397  50.8014032  51.6103794
  11.9509906  51.7246448  51.5432353  11.6126928  50.3418106  51.0287828
   8.3697289  31.9634986  43.9722086   7.4608581  31.6005333  44.1238076
   8.9142969  31.2114131  44.2511063  17.8381865  55.8414081  40.6938250
  17.0076169  55.5367338  40.3469406  18.4507942  55.7117894  39.9502977
  13.5743124  59.0165411  38.4349407  13.9247893  58.7574348  39.3256441
  13.0645838  59.8245152  38.6340680  14.3919520  48.3417962  70.9547971
  14.9392406  49.0558392  70.6169422  13.5830321  48.3830983  70.4349526
  14.3093417  44.0761894  40.0823237  15.2961560  44.0102868  40.2615639
  14.1154648  43.1897932  39.7746890  10.5358217  40.2251080  45.6052657
  11.4513421  40.4496810  45.4409560  10.2821907  39.8089567  44.7609678
   8.3431098  40.7964012  54.8219677   8.9467811  41.5321787  54.9000345
   7.5820979  41.2399608  54.3673606   9.2637165  35.5108835  53.7398808
   8.9767285  36.2949911  54.1596753   8.8106272  34.8435116  54.3107764
   7.5865374  48.4895242  57.0495062   7.0774776  47.6906927  56.7720256
   7.4746458  49.0294515  56.2043195  16.9930040  37.4004932  72.9760653
  16.2952232  36.8075291  72.7492471  17.5253431  36.8227622  73.6094179
   8.7672583  43.0504676  40.9164468   9.3932687  42.9707072  41.6585255
   8.7339886  44.0135427  40.8195075   6.6353725  29.2841846  51.4092279
   7.2286327  28.7523249  52.0015893   5.8178954  28.7567866  51.5805760
   6.7073824  47.2439392  62.8687855   6.1167192  47.5505679  62.1376414
   6.0409806  47.2910574  63.6283787   7.6378222  37.4810447  50.6870891
   7.3382811  36.8648291  50.0078714   7.4711030  38.3281552  50.2047341
   9.6162881  63.1700035  52.7087614  10.5785851  62.9970613  52.5973267
   9.6119640  63.4687210  53.6328691   8.1442155  55.5041087  50.5702147
   8.8396910  54.9731237  50.2860851   7.3120990  54.9775144  50.4969140
   7.7514111  48.2397857  47.1551922   7.2506707  47.7418039  47.8540349
   7.6830538  47.6214869  46.4013378  79.1686079  51.8523817  52.8093121
  79.5867466  51.1343814  52.2878839  79.6172124  52.6319656  52.4877594
   3.5078321  36.4149974  58.8445122   3.2384133  36.9044373  58.0546725
   3.3160171  35.5118039  58.5907017  22.7317918  58.4018419  60.8108072
  22.8824130  57.5076033  61.1409659  21.9460951  58.2916716  60.2676003
  13.2145580  32.3970158  30.0412611  14.0869724  32.7417769  30.1915078
  12.6802393  32.8153334  30.7231317  78.3497584  46.7234605  57.8389399
  79.2631313  46.5753705  57.8920280  78.2597676  47.1785699  56.9138696
   6.5297575  61.5827599  43.8819608   6.3267210  61.2537898  44.8074397
   5.6958079  62.1239405  43.7881446  19.3807908  31.7080537  45.3140040
  19.1350469  31.1760756  46.1277232  18.4378391  31.7141653  44.9167905
  13.5726798  39.1562648  56.9209723  12.7361073  38.6991346  56.7567570
  14.0541472  38.8520709  56.1271083  20.3447700  57.9705690  47.0944983
  21.2573397  58.2010447  46.8293285  19.7802583  58.4484156  46.4433385
  18.7424191  68.3017455  46.1135266  18.5812367  68.6291468  45.2270570
  19.4867339  68.9391823  46.3851565  44.7277599  -0.4125091  51.2027099
  45.2391166  -1.2351529  51.2232181  44.3232777  -0.4824976  52.0980883
  41.7511294   0.2127844  33.0139263  41.1070661   0.9164773  32.7514554
  41.0738701  -0.5342108  32.9361500  24.3089152  69.4316785  62.5947606
  23.5819409  68.9135694  63.0313429  24.5695970  68.7655339  61.9265105
  13.5362553  63.9043152  46.1377425  13.9613977  63.4357316  46.8659129
  13.9708009  63.5735290  45.3690037  29.8094541  69.6352054  56.1445597
  30.3808086  69.0113712  55.6458821  29.7570979  69.1440005  56.9933102
  20.0059536  55.6397067  51.0366663  20.4595165  55.8778944  51.8490671
  19.2223831  55.1555688  51.3324598  20.3624853  57.2396451  42.0175411
  19.4271567  57.3548310  42.1625918  20.5608361  57.9750658  41.3010087
  22.1957383  66.9571345  38.4894935  22.7199902  66.2145898  38.7619024
  22.3891393  67.6175627  39.1879347   9.7076058  67.1480234  48.5337694
  10.0037845  68.0714081  48.4891029  10.1555502  66.8008118  49.2958159
  20.0647840  65.9694878  57.4099168  19.2362182  66.0849830  57.9568696
  20.1140964  66.8634045  56.9655712  20.7927699  69.8087196  46.3674846
  21.2399048  68.9381628  46.3439512  21.4937293  70.3521006  45.9149830
  22.9871598  73.6295867  43.7204791  22.6557700  72.9600424  44.3185689
  22.4122318  73.5301495  42.9670840  48.7185612   1.3230790  51.1574881
  48.3775112   1.2276034  52.0870560  49.1411092   2.1992751  51.2632711
  48.1422177   4.3375913  58.5767330  47.5362419   3.5792787  58.2909124
  48.6922109   3.8361478  59.2279057  27.7586786  55.1818666  62.7192052
  28.6446705  55.4765698  62.3367758  27.2548517  55.2266641  61.8690991
  11.0849268  68.5590558  42.7278881  11.8077573  69.1616846  42.3989868
  10.4048417  69.2534362  43.0494073  26.8688325  62.6498413  49.4094519
  27.8766718  62.7653189  49.4418080  26.7667984  62.9484348  48.4796964
  16.0935577  56.9061863  62.0503860  16.8544849  56.2787273  62.0690768
  15.3778803  56.3033338  62.3296288  19.4918262  55.7455043  59.3324381
  20.3280426  55.3196147  59.0864685  18.8398586  55.3016317  58.7484991
  18.9251120  69.1889240  60.6869698  19.6765342  69.6641718  60.2046928
  19.4835347  68.6825113  61.3206596  36.0756614  63.0674572  48.0758748
  36.0729240  64.0216498  47.7901261  36.1498268  62.6214697  47.2463900
  36.1639100  -3.3142671  32.2163774  36.8667361  -3.3690442  31.5271471
  35.6559943  -4.1256500  32.0486683  17.4413802  64.7567226  63.9776285
  17.6339449  65.3435633  63.2607200  17.1919208  63.9282547  63.4468037
  17.5405781  58.4723663  41.3210629  17.8279948  58.4287204  42.3032079
  17.5052344  57.4622722  41.2164074  14.2929517  61.0341996  40.6789962
  14.2478839  60.5181553  41.5038528  13.3431505  61.0297970  40.3505967
  19.7090621  61.0457454  48.2681671  20.2914193  60.3956604  47.8006332
  19.0421602  61.2506993  47.5630696  29.8917083  68.7474013  58.6097225
  29.8743965  68.0677026  59.2909604  29.7869558  69.5795850  59.1203159
  27.9193811  70.3854364  51.0922705  28.6333178  70.3311782  50.4212676
  27.8669561  71.3808487  51.1404329  30.2612570  66.6096065  47.5604938
  30.1579892  66.8041905  48.4952662  29.2777192  66.6014690  47.3679980
  46.3037136   3.3780236  61.3122370  46.7824849   4.2844894  61.3050322
  45.4441320   3.6635303  61.6273166  20.3176829  73.1316801  49.9249328
  21.1779767  73.5860830  49.7937313  20.6663439  72.3629805  50.4033051
  38.5935102   7.9523592  45.5782059  39.3417092   7.9175599  46.2971194
  39.1538345   8.3990652  44.9240490  40.3257871  60.8608042  58.3451100
  40.1422338  61.7504755  58.5943531  39.5453286  60.6031663  57.7895701
  32.4959086  65.5722490  46.7945715  32.1211343  64.6795857  46.6643537
  31.6750405  65.9992437  47.1504550  11.0708663  63.7841811  48.6238888
  10.6201813  64.5843807  48.2319377  10.5407357  63.0312014  48.3299389
  22.6409046  72.5743501  57.4463271  23.4282977  72.9363158  56.9511824
  23.1130124  72.4530346  58.3376367  47.1814382   4.9387353  45.1789860
  46.8939775   5.8104630  45.4283531  48.1680206   5.0245799  45.1964750
  21.5232540  65.3222380  45.0239181  21.6846113  64.5259282  45.5953326
  22.1979319  65.0583016  44.3236935  31.4296666  -5.1599822  36.4895323
  30.5480732  -5.3934349  36.0716807  31.6992749  -6.0978125  36.7603140
  11.8647177  64.5390444  43.6441643  11.3739420  65.3579412  43.5689816
  11.1204629  63.9012784  43.8975214  21.7276810  50.2100217  46.3760267
  21.0587501  49.6351407  45.9010416  22.5368135  49.7439017  46.1850314
  34.8493851  70.5365503  63.4272270  34.8154394  71.5424551  63.3626360
  34.7407699  70.2982167  62.5098555  23.8762410  72.3310284  47.3501116
  24.6689959  72.3508201  48.0188447  23.2270820  72.7249085  48.0054880
  27.0299092  72.7354489  44.3428469  27.9357693  73.1125977  44.2800534
  26.5929919  73.5133439  44.7296571  17.7665445  69.1298920  43.4056757
  17.5075303  68.3370536  42.9023640  16.9900115  69.6920718  43.2160422
  18.0758149  53.7214465  51.6718125  17.3198524  53.9661499  52.2741203
  17.5239433  53.4178748  50.8862414  19.9787669  64.2948171  53.2338914
  20.2352555  65.0279547  52.6376781  20.8115963  63.7462961  53.0503502
  41.9244526  11.6381134  58.3585778  42.3865956  12.1226979  59.0129668
  41.2184327  11.1415031  58.8031207  17.0034505  71.1047733  60.5869224
  17.4807217  70.2549400  60.7221822  16.2235262  70.6864715  60.1070714
  11.1312489  68.9676778  49.9742379  11.8477020  69.0311522  50.6517488
  11.7070419  68.8509588  49.1461303  41.9973184   3.2206110  51.4754594
  42.7264454   3.1736560  50.8505413  41.2622542   3.1865867  50.8290149
  30.6368580  -1.9510292  54.0936215  29.9066353  -2.3007832  53.5815434
  31.2388808  -2.7420454  54.0571665  33.5330561  66.5405508  50.0720226
  33.1099047  67.1528507  49.4072795  34.2865258  67.2754384  50.2771637
   8.5080788  61.1771905  24.8600439   8.1977414  60.4075909  24.3518674
   9.0689506  61.6566094  24.2030259  49.9108442   7.0259579  48.1561681
  50.2115816   6.9557028  49.0929341  50.7147983   7.2825870  47.7172900
  22.6800310  61.6418632  36.7690333  23.0265486  62.5625583  36.7620885
  23.5113633  61.1204497  36.6134695  18.7438923  65.2637499  45.9691972
  18.8352194  66.2588184  45.8863141  19.6972574  65.0331016  45.7838218
  10.6351076  65.8841048  38.5734004   9.9558567  65.2398017  38.9611291
  11.4583295  65.4087498  38.7029709  45.5641496   0.0715014  54.2524126
  45.2909875  -0.8617226  54.0351441  44.9097861   0.2644483  54.9672545
  16.8952492  65.8216826  54.7011038  16.9645120  65.5350894  55.6095371
  17.2187418  66.7352898  54.7373891  40.4387671   7.4828455  59.1636148
  41.2757970   7.5534739  59.7140673  40.1234558   8.4213146  59.2007400
   3.8815345  63.5577588  53.0662357   4.8645249  63.5791153  52.9995416
   3.8105046  62.9143077  53.8168902  31.5604649  74.4989481  47.5498792
  32.1455476  73.9363666  46.9822020  32.2427684  75.2604496  47.7112030
  20.0089078  60.1847895  56.2368293  20.1137891  60.3741874  57.2576077
  19.8522362  61.1740473  56.0307643  20.8313571  63.8738928  49.7518186
  20.3898141  63.1073320  50.1687509  20.0292405  64.4427018  49.6113883
  21.3731750  61.3827156  45.5268612  21.3734048  61.8755649  44.6852916
  21.3779714  62.1410137  46.1839703  26.0410910  72.1745163  48.7480441
  26.6871074  72.7162839  48.1930892  26.4728928  72.4395248  49.6442096
  15.0900080  62.0972325  44.3842208  15.3723047  61.6790803  45.1740461
  14.7989664  61.3553010  43.7967019  34.1391077  58.4364230  43.2790684
  33.3082656  58.2793755  42.7565974  33.8202274  58.2073506  44.1606585
  14.4161444  50.1640259  38.0385409  13.4644324  49.9113167  37.8496098
  14.2504203  51.1622520  38.1265796  48.1673201   7.1488790  54.2439470
  48.0105285   7.3512345  55.1718783  48.8836963   6.4383596  54.3143834
  31.3084917   0.3915466  32.1583084  30.4837215   0.8039832  32.4695904
  31.6010144  -0.1115016  32.9841519  36.6045219  62.5145675  50.5820876
  35.7827440  62.2014854  51.0018501  36.3129079  62.5875157  49.6463901
  22.9642215  59.1027969  47.0634154  23.1263921  59.4640847  47.9798961
  22.7227517  59.8514997  46.5410081  22.1553317  67.8571930  58.9021581
  22.9241057  68.2061410  58.3544344  21.6326317  67.4189840  58.2009521
  26.8570424  64.3046260  52.8895331  27.7351021  63.9523229  52.5101394
  26.3174644  64.1991151  52.0924531  14.1924426  55.0201152  68.1084548
  13.8768246  54.1686133  68.3427748  14.5943446  55.3699180  68.9185761
  43.8797800   5.1168037  58.9872685  44.3912787   5.9518589  59.2151803
  43.8997333   4.7175201  59.9080419  13.8806497  66.6446471  48.5443138
  13.5287184  66.0774110  47.8536539  14.7819972  66.8215014  48.1745533
  45.8813607   7.8764819  56.6350482  45.2789794   7.3108259  56.0695707
  45.1461180   8.4284094  56.9888127  43.3712620   3.8661129  46.5996741
  43.3460948   3.9954258  45.6362168  43.5457093   4.8314458  46.8207078
   7.9368087  66.8890702  41.8711740   7.2833293  67.4378907  42.3306470
   8.2131060  67.5937490  41.1657710  17.9669311  58.5800899  56.7978873
  18.5890811  59.2881536  56.6334197  18.2848033  58.2124046  57.6497657
  16.8069019  67.2709681  40.2933641  16.2085862  67.7547239  39.6266919
  16.1460843  66.6419959  40.6109723  16.5216423  54.6387602  53.6236831
  16.9822431  55.4950008  53.6787034  15.6202165  54.8978731  53.9002342
  21.0859785  64.7620949  35.4805401  21.8692564  65.3372570  35.4587430
  21.0284226  64.4061921  36.3957839  26.2668072  64.8676328  42.3851721
  26.0300081  65.7657079  42.0515180  26.4592810  64.4175178  41.5735858
  24.8015877  71.1199602  43.5583163  25.5576843  71.6850064  43.9390600
  24.9242727  71.5056663  42.5943743  12.6788044  59.0271574  45.3244365
  13.3920012  59.4316965  45.8665732  12.0521034  59.8261103  45.4152462
  16.1682999  62.9718592  55.5339388  16.1847707  62.2714607  56.2067834
  16.7709425  63.6020196  55.8033110  13.6421372  53.3702108  61.5790858
  13.8854537  54.2080632  62.0933697  14.0766021  52.7377852  62.2576237
  14.5405496  67.8425996  54.1381169  14.2303696  68.7586993  54.0211388
  15.4850917  67.8878207  54.0199010  14.7362368  70.2557241  59.6104638
  13.8048800  70.4513468  59.4006724  15.0509857  69.8948056  58.7726246
  21.9516276  62.1730781  53.3690328  21.6737405  61.2258235  53.3396349
  22.4475504  62.2023980  52.4900759  16.8888066  64.1113718  47.5391695
  17.4328925  64.6259997  46.8658116  16.9601578  64.7252243  48.3107407
  23.9589814  69.3940421  53.3525046  23.7778610  70.0377562  54.0468060
  24.0736378  69.9426863  52.5490692  14.9258511  66.9827522  44.9354221
  14.5448457  67.8717032  44.6183057  14.1205185  66.6745476  45.4170900
  35.1103862   4.4722163  47.0731366  35.3449250   3.8235362  46.3727892
  34.7272211   5.2184967  46.5113898  21.3747462  62.0050698  39.0947962
  21.8973840  61.6411032  38.3293684  21.1287209  62.9155083  38.7421558
  75.8542508  69.8616754  43.6239899  76.5939841  70.4983007  43.6126319
  75.3610555  70.1851048  44.3938777  12.6821194  55.1987482  57.9263177
  12.6959963  55.0883650  56.9683762  12.6886497  56.1401028  58.0414612
  26.2140012  57.7722626  61.2545254  25.4299185  58.0932842  61.6739480
  25.9223034  57.0426245  60.6692332  55.4701753   4.7169067  51.0580598
  55.7001818   5.2928308  50.2354693  55.2066762   5.4874750  51.6318106
  24.6382162  67.0595565  41.9311254  24.0007318  67.5658364  42.5050779
  23.9458489  66.5192739  41.4584408  18.6329441  54.1930250  57.1867692
  17.7026673  54.4536528  56.9857030  18.8557920  53.8157176  56.2753326
  41.8174753  71.3909445  45.8880899  41.6792078  72.1844485  46.4823974
  41.2021814  71.6554524  45.1535841  27.6824419  65.1476917  44.4980015
  27.2440479  64.8792808  43.6597932  28.6217442  65.0882415  44.2217857
  61.9421157   8.2642486  44.6710841  62.8535076   7.9883163  44.5403929
  61.6485679   7.6762710  45.3715985  22.5697757  73.0230540  52.7712602
  22.2397205  73.5238653  52.0016393  22.9115030  73.8210454  53.3466879
  31.1276465  76.0594470  51.5545941  31.3451843  75.1259683  51.3828780
  30.1999592  75.9417821  51.8692466  54.2705262   9.3270699  38.4174646
  54.6324205   9.5928467  39.3056986  54.1504532   8.3289556  38.6733365
  39.0828205  63.5839146  51.3650412  38.2741101  63.2808751  50.9115143
  38.9612225  63.2573516  52.2682710  41.7054482  76.8540949  45.7833028
  42.6844401  76.9027196  45.6411200  41.5051825  76.0322761  45.2050223
  40.5094351  71.8840022  57.8781847  39.9792980  71.0730479  57.9308388
  41.0395640  71.7483055  57.1035108  59.6721453   5.4639038  40.4772866
  59.1045793   5.9748483  41.0749303  59.9327523   6.2072078  39.8669048
  26.7131904  75.2312651  46.5084940  26.1524861  75.2774877  45.6936740
  27.4090636  75.8035330  46.3024951  37.2454698  62.3650854  58.9883917
  37.6403056  61.4574783  59.2089860  36.3571751  62.2303694  59.3268429
  38.4689922  72.8662137  46.5533118  38.0225215  72.0995042  47.0485168
  37.9068691  73.5790188  46.8880887  36.3821110  76.4138804  51.9232604
  36.7890428  75.8267931  52.5719411  35.4403935  75.9656550  51.9567252
  35.6530065  77.6236691  43.1876502  35.5333211  76.8263556  42.6517706
  36.0365905  78.2497883  42.5235121  42.1396171  74.2392893  51.0692001
  41.9984004  74.2371417  52.0261195  41.5467042  74.8609358  50.6842877
  21.0636757  74.2009388  32.8954060  20.6860159  74.0958402  32.0315533
  20.4231581  73.6926895  33.4183217  34.2940511  75.1043740  42.1745530
  34.7325930  74.5359320  41.5939830  34.4273927  74.7978808  43.0830293
  37.7441933  72.8585703  58.4789405  38.5532512  72.4000908  58.2650178
  37.4254624  72.3018252  59.2112383  45.2454048  63.5360462  52.3735788
  45.5369635  63.5269157  51.4814247  45.5701865  64.4214053  52.7157984
  37.5041441  66.5689021  47.4184341  37.6383702  66.5767106  48.4272566
  36.5282855  66.4679259  47.4583156  34.9842709  67.6557542  43.6897018
  35.5284912  68.2420848  44.2645649  34.0758601  67.8407770  44.1026683
  49.8124906  83.3379578  56.1372135  49.6320482  84.2684440  56.4369576
  50.1912791  83.5689643  55.2307603  38.3495266  64.4189126  57.7188901
  39.1349629  64.1033600  58.2536470  37.7788576  63.6561913  57.8555898
  60.5706823  10.6997037  51.9353833  60.0141237  10.2708153  52.5927577
  61.4250896  10.2843168  52.1169330  57.6616928   9.3429520  67.0199845
  57.6824234   9.2463067  68.0166716  58.3730488  10.0124306  66.9594960
  37.1177436  75.2731978  54.4919064  37.5093069  76.1197418  54.7739703
  36.6533072  75.0450776  55.3695435  40.9243953  74.6675118  55.0945126
  41.1574614  75.3468666  54.4363154  41.2953631  73.8267463  54.6586578
  31.8080455  60.2118730  50.9926333  31.4101908  59.8740330  50.1902144
  32.5232488  59.5543598  51.1953118  25.9905040  75.6506778  41.8166313
  26.0035259  74.9996379  41.1002579  25.2252604  76.1875503  41.5216409
  61.2240786  10.7492296  44.3655090  61.5556270   9.8136138  44.3967437
  61.0674364  10.9674905  45.3089422  28.4940802  73.9822036  40.1312431
  28.5884321  73.7523056  39.1937118  27.5925937  74.3748151  40.1127144
  37.4066453  70.2430331  60.8401309  37.3885049  71.1847145  61.0463912
  36.4299220  70.0467377  60.8195166  55.3730717  14.5263812  56.2592205
  55.5313769  15.4304349  55.9647637  54.4631168  14.4000433  55.9263372
  44.1865587  79.3163874  56.9223943  44.7026700  79.0570021  57.7477736
  44.6060760  78.6672191  56.2871491  34.9767549  65.8021970  47.9295464
  34.0812339  65.6904026  47.4809271  34.6149365  65.8584730  48.8472591
  22.8637388  67.3012492  51.5880303  23.1865901  68.1830207  51.6303047
  23.5303164  66.7836327  52.1039581  54.4193590  72.6346423  50.3658058
  54.5266041  71.7229238  50.0281478  53.5361575  72.8383640  50.0647128
  27.8118399  70.8033305  54.6260559  27.7844028  70.1046999  53.9072743
  28.4621878  70.3209828  55.2319041  33.9065524  66.2794173  53.0156696
  33.5544830  65.5981960  53.6524217  33.2449187  66.2420823  52.3182592
  22.0463130  67.6318350  46.3929850  21.9255482  66.7952273  45.8775104
  22.5272111  67.2559907  47.1651183  28.1849061  73.2222112  47.3572781
  27.6146632  73.9530275  46.8850898  28.9316256  73.8676003  47.5872247
  36.1248097  65.0862402  43.4445889  35.6919103  65.9623836  43.2286337
  37.0624447  65.4007085  43.2700303  38.7576759  67.3123742  53.0627390
  38.7979887  66.7372455  53.8633595  37.7888806  67.4483024  52.9879203
  33.9311538  58.6509449  51.8387365  33.8763284  58.7027291  52.8120567
  34.0700513  57.7008983  51.7085689  25.1011503  66.3112142  45.2244206
  25.6144684  65.9667706  44.4640578  25.0204534  67.2705571  44.9236890
  62.9188066  11.7977117  49.8600498  62.7639669  12.7489923  49.8068103
  62.0100722  11.4341528  49.8851943  54.4267378  72.5652851  36.0125186
  55.1598848  72.5411163  35.3665917  54.9035756  72.1200596  36.8095676
  39.4225153  78.6248369  45.7179942  40.1557404  77.9685548  45.8208887
  39.2378890  78.4589586  44.7692022  38.6730584  77.6874818  43.4180880
  37.9179026  78.0513594  42.8609529  39.3325105  77.6519519  42.6458176
  29.5991573  67.4179700  50.4759812  29.6435880  68.3284716  50.1042736
  28.6545537  67.2285754  50.3146304  46.3244233  78.8566195  47.6995668
  46.2008459  79.8307156  47.7810291  46.3479251  78.7848612  46.7258441
  47.7504334   0.9366562  42.5778921  47.1745010   1.7081284  42.7386313
  47.5262721   0.4224118  43.3716828  21.8605801  63.5224965  47.1580105
  21.3006350  63.5346625  47.8817674  22.6504456  63.9402956  47.3822550
  36.8536546  69.3632796  44.4348511  36.9424094  70.1664430  43.8702082
  37.7353630  69.3693831  44.8662933  37.3052505  74.1645237  49.5085549
  37.8820112  73.4108537  49.8009912  37.9550421  74.5380146  48.8543838
  37.9566284  69.9371178  39.1677109  37.4434485  70.7361736  39.1466348
  38.1684242  69.9119291  40.1206309  33.0341989  72.6955409  46.0137929
  33.8357239  72.1345592  46.0284243  32.7637295  72.6337236  45.1003387
  41.1692793  71.1752039  51.6029236  42.1151207  70.9229877  51.4271644
  41.1669285  70.9495611  52.5707705  39.8664513  72.4631626  44.3976725
  39.0801530  72.3670671  43.7731429  39.3515140  72.8184981  45.2061611
  43.9664775  69.7579015  42.3864292  44.1885567  70.4044992  43.0628424
  44.7777692  69.2264204  42.3528803  18.8987835  71.7137976  45.4846258
  18.9818958  72.5310620  46.0838135  19.4424327  71.1145598  46.0046387
  41.8140288  68.7269845  54.3419805  42.6930184  68.4459183  54.0256816
  41.4862359  67.8656307  54.6863050  36.8932934  80.4570404  45.0043860
  36.2586385  79.8194801  45.3168149  36.8695909  80.3321743  44.0401317
  32.7953021  68.3806810  48.2839593  31.9783692  68.3819568  47.7685730
  33.2878734  69.0467011  47.7659549  59.0852052   6.3095336  48.1447837
  59.2624028   5.3357926  48.0511592  59.1374691   6.4983622  47.1737395
  78.1892483  16.2009750  54.0206781  78.1411540  16.5324744  54.9220852
  78.5802646  15.3078440  54.1327485  22.5258534  68.6946043  40.5594723
  23.2367682  68.8353019  41.1221470  21.7557702  68.8567986  41.1447404
  12.8911097  43.5369623   0.1624943  13.4555749  43.6291346   0.9266008
  12.2230269  42.9136110   0.5168669  48.2075218   3.7725360  36.1764132
  49.0099060   3.7999255  35.6890593  47.6444760   3.1869136  35.5682094
  31.3490539  69.7540434  35.5433725  31.5538317  68.8790838  35.2909643
  30.6906619  69.6543292  36.3053233  35.4702288  64.5405461  61.6496538
  34.7679800  64.4089293  60.9858171  36.1083344  65.1137217  61.1828371
  49.1108456  80.8744247  46.7710777  48.2752189  80.9810346  47.2527096
  49.3375992  79.9454670  47.0824025  30.2815772  69.6097659  44.3230500
  30.8533507  70.4099316  44.3901456  29.5244379  70.0416652  44.8851679
  32.7620997  63.6487845  59.9068280  31.8791483  63.4818213  60.2589701
  32.5279850  63.5729096  58.9358206  42.6519210  70.9647459  48.5233713
  41.7877712  70.6289943  48.5328223  42.8208985  71.0670623  47.5308647
  39.5140359  75.6064766  51.2890054  39.1737243  74.7179038  51.0582905
  38.9350312  76.2022464  50.8291371  45.7298864  74.7053287  47.1552897
  44.8470374  74.6951527  47.5984587  46.3604042  75.0365700  47.8012639
  35.1202499  70.7071015  35.4062284  35.8502159  70.8042336  34.7248043
  35.0513811  69.7026440  35.3982475  30.3863786  71.7315050  66.0771626
  30.4616789  71.0699999  65.3319090  31.2920763  72.1558324  65.9050127
  32.1582251  63.2862486  57.1467095  31.4724032  62.5893487  57.1128944
  32.8537072  62.8980176  56.5721079  48.3855151   5.4837319  26.5346641
  49.3603242   5.5929790  26.5756947  48.0876279   6.4529366  26.5461265
  59.3457306   9.1079394  64.3615758  58.6454635   9.2547267  63.6927559
  60.1239418   8.9992274  63.8525158  46.1587150  65.2478307  58.9807819
  46.2484853  65.1576279  59.9405592  46.2797924  66.2136417  58.8672078
  33.5832922  62.4487089  50.9348683  34.0716292  62.2811749  51.7618774
  32.8741243  61.7785775  50.9844057  45.5814695  77.4399443  55.4840203
  45.1599000  76.6073355  55.2081891  45.5460992  77.9386861  54.6452116
  42.6864759  77.9471087  40.2013009  43.4968460  77.4786344  40.2411020
  42.6942690  78.3144615  39.3193229  26.8956853  68.8090781  52.8238207
  27.2417877  69.3887577  52.0518319  26.0062113  69.2166528  52.8539298
  41.2768780  65.8754987  42.0383955  41.8519698  66.4119556  42.6222201
  41.6752330  66.1256421  41.1809656  40.1740008  81.4247823  44.2585831
  40.1128696  82.3649564  44.0325338  40.0075939  80.9584951  43.4645750
  48.7511629  60.8483464  55.2130260  47.8328275  60.8582250  55.4721074
  48.9289514  59.8824105  55.0772444  37.2004144  77.4588141  64.1679116
  38.0931909  77.7066364  63.8728947  37.3927851  76.6385132  64.6921506
  38.7316061  69.8804158  58.5067946  38.6679571  68.9691699  58.2904716
  38.4241322  69.9091881  59.4606699  44.5095904  12.6099193  51.1465881
  44.6185197  12.8789721  52.1015102  44.2593792  13.5175759  50.8060353
  23.4363489  64.2150356  43.3931229  24.4158267  64.2408776  43.3187584
  23.1745858  63.7176515  42.6490773  35.7297434  64.7108020  56.1961882
  36.3562620  65.3818736  56.5443174  35.5993050  65.0095079  55.2759917
  31.4143498  73.3723314  50.8966778  30.8203020  73.5859649  50.1404403
  32.1337071  72.9030972  50.4015152  27.2523581  65.6550045  57.1197415
  27.5653124  66.4370630  56.6375692  26.5426832  65.3542375  56.4700178
  15.1523950  64.2305709  51.1172465  15.9950706  64.4274213  51.5382728
  14.7893308  63.5828520  51.7811293  29.7463136  69.9187293  49.1568211
  30.3050236  70.6267457  48.7753869  29.0609588  69.8444578  48.4626349
  16.4894443  70.7855321  39.7399135  16.0300092  69.9867187  39.3465089
  17.3901108  70.6258678  39.3813164  26.8919570  65.7470253  62.3731263
  26.9274798  66.6971165  62.2649969  26.7234602  65.4458529  61.4485917
  44.2014890  72.3051665  35.4649177  43.3765445  71.8906732  35.8567812
  43.8064916  72.8475646  34.7374254  32.5172754  69.4721357  42.1956589
  32.2998002  68.7316633  42.8244944  33.4472293  69.3289873  42.0153465
  56.0156308   3.3936020  53.3888608  55.6992251   2.4291988  53.3775218
  55.8262384   3.6219634  52.4673900  30.8251613  70.0890306  40.3261508
  31.5224318  69.7186844  40.9544158  30.1201421  70.3643348  40.9463706
  38.9930749  72.5295943  50.8306817  38.5653242  72.6437504  51.7291353
  39.8394910  72.1349821  51.1047408  33.0994450  76.5576280  49.1771860
  32.6867685  76.4150451  50.0433134  33.8402831  75.9598071  49.1859620
  38.2582295  65.9705053  50.4502661  38.0605133  66.4936883  51.2297900
  38.6500708  65.1841165  50.8734827  65.9635869   7.4974588  47.8426366
  66.8729513   7.4018329  48.2972119  65.7565074   8.3352409  48.2071288
  29.6461524  77.2596178  63.0088471  30.1392926  78.0682597  63.2758104
  29.1528730  77.6912202  62.2181575  43.8589768  82.5003966  47.1551613
  43.2936583  82.0420976  46.5231428  43.2960079  82.4648933  47.9499436
  34.6542459  69.5491885  60.7156699  34.6418709  70.0234353  59.8376995
  33.9924951  68.8193651  60.4819670  51.0892324  69.9055654  65.8583653
  51.5070879  70.7148434  65.4620294  51.7239152  69.8090028  66.6178676
  49.4711274  77.4779116  57.9563993  49.0226975  76.7500011  57.4049381
  50.2101469  77.6366685  57.3462301  36.1912912  65.1072974  65.4162906
  36.3235876  65.1548062  66.4528747  35.5558030  65.8722844  65.3863576
  38.9042588  58.8895109  54.5302922  38.8676169  59.6342375  55.1833985
  39.6225792  58.3620188  54.9433367  41.3473961  70.8359219  69.5527588
  41.0788494  70.2897758  68.7640902  40.6121578  71.4658852  69.6525861
  61.4774843  13.6762324  54.5471536  61.1759463  13.4248631  53.6554415
  60.8109331  14.4179360  54.6644320  43.5808177  79.9687398  49.6450986
  43.0276692  80.5828463  50.1399733  43.0514780  79.8205325  48.8175488
  28.8457434  77.6884379  39.9051573  29.5066719  78.3272222  39.6882299
  28.2918462  77.7438341  39.0530059  29.5990313  62.2191802  63.1135153
  29.6046747  61.3458057  62.7593191  29.5434378  62.7815968  62.2486305
  58.9068888   9.0193326  44.7468954  58.5355106   9.8205930  44.3399343
  59.8467041   9.2430256  44.7875045  34.2628959  74.7105679  51.6459025
  34.6402168  74.0573403  51.1085416  33.8018356  74.1977949  52.3673486
  35.2623475  75.7742075  66.9410601  35.6205279  75.3209177  66.1583555
  34.3755306  75.4064397  66.9993876  43.8137899  70.2033044  62.0217388
  43.9911820  69.9327571  62.9303263  44.3516253  71.0319850  62.0395591
  65.7115023   7.4340009  55.4662070  66.2886278   6.7961296  55.0360770
  64.9467776   7.4841744  54.8448177  36.1063044  72.1009521  37.2428935
  35.6628664  71.7900219  36.4235463  35.6094690  71.5391971  37.8834028
  66.4055312   9.9787394  61.0675163  65.5019462   9.8506114  61.2725935
  66.3511754  10.4467773  60.1753681  48.2702760  65.0423758  50.5143158
  48.3375152  64.5703854  51.3405206  49.0451911  64.7278816  50.0176915
  47.6344937  80.2106221  55.1219091  48.4089829  79.6239285  55.2355000
  47.0540043  79.7166720  54.4818702  53.6501606  69.8096943  50.7752907
  52.8093198  69.9794782  51.2569529  53.3401454  70.1257774  49.9069205
  28.7185740  75.7116402  52.7560828  28.4851022  74.7599791  52.9367594
  27.9350284  75.8649193  52.1278712  33.1836945  72.0780003  28.6473870
  33.8988509  71.4223818  28.5854861  33.5715773  72.8197974  28.1330755
  26.1918390  71.6297152  58.8431566  25.9511606  70.9394687  58.1590768
  27.0504734  71.9444577  58.4934229  39.1476176  66.8805169  45.2967515
  38.3557911  66.8595475  45.9115934  39.4663740  67.7588179  45.4379340
  23.7431055  65.2078462  65.2689166  24.3674455  65.9556129  65.3052464
  24.3892073  64.4840507  65.0161503  32.5108770  67.8008163  44.8664386
  31.6405318  68.1946753  45.1185358  32.5626501  67.0316184  45.4104981
  41.8539618  65.8297114  46.1862644  42.3372229  66.3306326  45.5018969
  42.3682494  66.0245589  46.9880547  35.3201632  76.8911082  58.6594892
  35.8754205  76.5273927  59.4030131  34.9546371  77.6705798  59.1439661
  35.8032511  74.3495305  57.0135679  35.8201906  75.1990181  57.5146178
  36.6023687  73.9094993  57.5343195  42.3219922  63.8765523  49.0670061
  42.8770434  64.6818996  48.8433473  42.6387136  63.3811127  48.2554741
  41.0841661  73.3452015  48.0975023  40.6089296  74.1702861  48.0976096
  40.7279548  72.9539091  48.9278056  50.1541380  64.6370361  53.9933831
  49.6379361  63.9222181  53.6137654  50.7275560  64.8778653  53.2327436
  30.4789777  78.6069231  46.5574334  31.2738717  78.7314275  47.0902296
  29.8850592  78.2103459  47.2125209  46.4066495  68.8347854  45.2948185
  47.2054334  68.3427293  45.3979216  46.0183665  68.4127189  44.5134305
  45.2837270  68.1476489  40.0969224  45.1399352  68.9009400  39.4467959
  44.8232080  67.4757853  39.5908817  47.8676403  67.9004756  49.2271340
  47.4124091  67.4994222  48.4623258  47.8125273  68.8750142  48.9387705
  74.1449427  14.9105635  43.4659133  73.2566270  14.7853375  43.8067463
  74.6226907  15.0583741  44.3219070  35.1273667  77.4470429  39.1192322
  35.9023921  77.1496699  39.7031009  35.2274403  76.7289998  38.4618638
  41.0547108  16.3447815  52.9750503  40.4558873  16.4422085  53.7410697
  40.4993925  15.7506184  52.4203070  66.1812324   7.2708177  58.2866244
  66.0944169   7.5738110  57.3570995  67.0521178   7.7182673  58.5051808
  70.9209765  34.7222165   4.7239687  71.1609718  35.5383472   5.1983853
  71.6421728  34.6902221   4.0316766   1.2587011  19.4919597  46.6083949
   0.5486053  20.2116522  46.6878225   1.1988802  19.4107541  45.6212962
  49.2365890  76.6339523  53.8454553  49.5467772  77.5068123  54.2602050
  48.3443419  76.6317260  54.1295943  78.6137810  18.9490230  49.7770432
  78.2676388  19.8486003  49.9354760  78.5229733  18.5213141  50.6253902
  66.1654396   9.9224993  55.9015161  66.7350473   9.9060841  56.7153944
  65.9063012   8.9355879  55.9032153  64.0602320  11.6328534  55.6001776
  64.5099403  12.5173927  55.5647448  64.8785034  11.1126874  55.7571553
  59.1292400  13.1451520  46.6069890  59.5948487  13.6798583  45.9312289
  58.2508978  13.1209656  46.1783472  44.2837518  76.5778489  45.7054101
  44.9239509  76.0773241  46.2939572  44.8428614  77.2509764  45.2841367
  46.6284425  73.5004095  53.8431013  46.0514758  74.1968916  54.1645276
  45.9807308  72.8285174  53.5822481  63.5751690  18.0063004  49.6899936
  63.6077362  18.8232574  50.1715911  63.8805501  18.2209706  48.7982454
  41.6941963  82.3674898  49.4734062  41.3614903  82.3181928  50.3477861
  42.5391591  82.8791000  49.6511810  51.9590038  83.4168161  57.9384227
  51.3786595  83.4451704  57.1584829  51.5403930  84.0607714  58.5022532
  63.3574920   6.6525853  54.1761719  62.7812569   6.7947939  53.3601189
  62.7298882   7.1571753  54.7966757  58.8354036  81.1255571  45.9352036
  58.5632138  80.6245631  45.1115309  58.7337515  80.4349998  46.5962390
  46.6581184  82.2030525  53.4550530  46.7052008  82.9721089  54.0127527
  47.2983491  81.6084290  53.7715982  41.6919682  79.5755698  47.6839023
  42.1241847  80.2549055  47.1115984  41.8121558  78.7962052  47.1939553
  14.0330856  10.1011197  48.2281148  14.6003596  10.1348335  49.0750244
  13.4818900   9.3958246  48.4412495  66.3466742  15.0497344  46.6831020
  66.0273968  14.4833656  47.3777824  67.2629148  15.1711345  46.9357386
  71.6576121  19.7039101  55.3816642  71.7547063  20.3212589  54.6138616
  70.7101014  19.5255183  55.3127519  46.4769706  81.5789439  47.6960049
  45.6731443  82.0745145  47.4074479  46.6715579  82.0465209  48.5423414
  12.1470641  17.1698071  42.9131642  13.0673223  17.5411071  42.9476117
  11.7719574  17.6359546  43.7047244   9.4239712   5.4029359  43.1110123
   8.7165245   4.7581473  43.4698434   8.8723724   6.2065268  43.2168640
  11.1599364   4.0515097  41.6636540  11.9006742   4.2981809  42.2320489
  10.4318999   4.4966907  42.1835495  30.3268033  44.1382692  85.0369357
  29.8062837  44.8518609  84.6509598  31.0002212  44.0370723  84.3508298
  12.1113844  12.4952646  40.0668460  12.0102751  13.2981439  40.6654299
  12.9451829  12.2119328  40.4129327   1.4066155  12.8611252  38.8676282
   1.5469101  11.8668981  38.8636417   2.2912926  13.1742369  38.5566464
  15.1710332  10.8172269  50.6760399  14.2359328  11.0261039  50.9160553
  15.4198109  10.3673799  51.5211210  52.7144519  81.5789480  31.8179248
  52.2044752  80.8276322  31.4383251  53.1602528  81.8857757  31.0066078
   3.9670649  19.3073042  40.7247508   3.8817221  19.1755854  41.7013920
   4.0600131  20.2224998  40.6707445  76.3753736  22.7569183  40.9651052
  77.1066038  23.3399306  40.8003594  76.7927223  21.8887660  41.1160879
   5.3817425  16.1737581  39.1880055   4.7301775  16.8669343  39.0197719
   6.1478411  16.3801667  38.6352516  53.4498858  82.3262030  34.1629577
  53.1041577  82.0504894  33.2465027  54.3502689  82.5818306  33.9117370
  54.1881572  85.7728295  31.5842295  54.3549010  86.7462924  31.2481207
  54.8170419  85.3379721  31.0321612  43.1958420  34.9941156  -5.6448922
  43.8911002  34.4278604  -6.0712347  43.7686169  35.5379761  -5.0585488
  60.3510262  79.3798619  32.8127473  60.1022895  79.5740804  33.7427233
  61.0079061  78.6843209  32.9953173  15.1356894  10.0050873  53.3824696
  15.5997603   9.2458083  53.7756495  14.2139273   9.7405532  53.6576522
  51.9940167  86.0806179  51.8234206  51.5495719  85.2426878  52.0972520
  52.8868564  85.6968808  51.5733003   8.7753393  18.6704131  35.1983343
   8.5732979  19.5864402  35.4101722   8.9998098  18.7128471  34.2709036
  59.8846953  74.4752111  32.2609695  60.3254671  74.1755915  31.4250344
  59.0004455  74.7072021  31.8890343  17.4654281   6.6654511  44.1161344
  17.4401480   7.5550240  43.7882856  18.4138583   6.4270565  44.2206537
  61.7731984  78.3662288  39.5838295  61.9553613  77.4231030  39.3660950
  62.3025959  78.5328109  40.3580388   4.3393039  31.9089545  39.4700646
   4.5886314  32.8482675  39.2861742   3.4670484  31.8679684  39.0044386
   8.1920554  19.6218300  43.9919395   7.6319099  20.2472989  43.5063681
   7.5245996  18.9079030  44.1631471  25.4467677  16.6738306  34.8082207
  26.2648426  17.2002927  34.5740174  25.7116399  15.8408267  34.3351205
  29.3903820  40.2387347  84.1537170  29.0320343  39.6402717  83.4002560
  29.8501502  39.5931468  84.6874856  16.9215236   9.1886485  43.1834541
  16.5805194  10.1023630  43.2938661  17.8594831   9.3425664  43.1400897
   9.7067981  27.8305401  37.9933318  10.0001623  26.8911191  37.9913534
   8.7504471  27.7071335  38.1042584  15.5910797   2.2395065  40.0733818
  15.4312477   1.8384158  39.1542832  15.1283965   1.5619774  40.6216914
  10.5654292   5.8041060  30.4406531  11.1256809   6.5387699  30.0688462
  10.4615020   6.1719552  31.3637517  11.3185518  14.9318387  28.1674101
  11.1802298  15.3087941  29.0637928  10.8365783  14.1179856  28.1939208
  60.3103846  78.8238409  25.5741090  59.6631303  78.7358286  26.2917026
  60.9399472  79.4816991  26.0388166  72.9206904  21.3465865  37.4508688
  73.5529173  20.6001974  37.5788671  72.8075084  21.6410272  38.4037820
  51.9209749  56.3184474  73.1437193  52.0565377  56.9641259  72.3797935
  52.8043528  56.1890387  73.4625825  16.4045065  15.5048551  45.3909673
  15.5575252  15.1019488  45.2054494  16.7443827  15.0660503  46.1588217
  57.3818058  80.6156541  34.3840857  57.9214635  81.3607621  33.9743851
  57.1880996  80.9873775  35.2418569   1.0418209  34.4464035  21.4035393
   0.2877129  35.0373519  21.7256583   0.7130783  34.2827941  20.4517802
  21.8552518   0.7262827  36.4060717  21.0741470   1.3296172  36.4992468
  22.2032786   0.6617192  37.3076642  55.3359953  79.6796376  21.1523740
  55.6084481  79.0627667  20.4425167  55.9378983  80.4263132  20.8998778
  77.1024882  10.7299862  36.5541704  76.8287074  11.6705179  36.7999144
  76.2313768  10.3546272  36.3553344  76.7741926  12.4216016  33.8122649
  77.6916016  12.3845086  34.1610845  77.0076746  12.0868261  32.8899420
   6.3683135  18.7607927  28.3054482   6.9662035  19.5373419  28.1907863
   5.9202579  19.0216508  29.1699900  42.9773302  78.4236941  37.6227634
  42.8973586  77.9822327  36.7044260  43.9354817  78.5000447  37.6232883
   6.0085596  12.3844074  48.1121162   6.6958527  11.8274638  47.7486476
   6.5137298  13.0611625  48.6102952  38.4069454  44.3318569  86.0707558
  39.1065305  43.8614209  86.5088730  38.9602787  44.8954996  85.4440364
   8.1418741  14.0570518  46.4001122   7.4642514  14.2737546  45.7488195
   8.7299134  14.8609123  46.2639827   6.2999485  21.3897888  42.6827214
   6.6938676  22.2681105  42.8538540   5.4516300  21.6674524  42.2139350
  65.9736438  77.0689747  35.6542489  65.4905408  77.7764463  36.1604246
  66.2156636  77.5751670  34.8612748  62.9396065  73.0340389  39.4723376
  63.5734047  72.9708005  38.6957469  62.5371092  72.1715838  39.3483392
  10.0711351  13.3568304  51.0024732   9.6715070  12.6964946  51.5757529
  10.2565213  12.9185242  50.2093652  78.5534657  19.7435008  38.9280461
  77.8799385  19.0108433  38.8127869  77.9132117  20.5216760  38.7997060
   1.7175551  17.7033996  35.3136987   1.6245565  18.3865717  36.0211040
   2.1421925  16.9701399  35.8193007  55.5369601  83.5498466  47.9425480
  55.8578908  84.4975109  47.8584769  56.3062211  83.1580607  48.4456874
   9.1079577  10.7467810  29.3798226   8.9191505  10.3512047  28.4901856
   8.9546642  10.0122382  29.9979367  59.4255029  76.3008902  43.7520811
  58.5297801  76.1007189  43.3760862  59.1749125  75.9826376  44.6772075
  54.0410946  82.6219837  40.1514541  53.3187871  82.1563878  40.6846191
  54.6773198  81.9240293  40.0465772  71.4357411  30.5745894  42.0685760
  70.9565326  31.4136629  42.1238104  71.2691688  30.4163361  41.0967149
   3.8919098  13.3365101  30.0175960   4.2003784  14.1791179  30.4049473
   4.4804168  12.7248308  30.4346571  59.1385566  75.6003073  38.6794287
  59.2238405  75.0446347  39.4863579  58.3708342  75.2164762  38.2404142
   7.7360096  29.5821447  41.2336289   7.2026037  30.0192938  41.8669835
   8.1319129  28.8855295  41.8710996  47.9105505  81.9120153  42.1664648
  47.8810394  80.9423428  42.2128318  47.6894769  82.0718946  43.1683820
  10.0797854  18.6719359  38.1261091  10.4485802  18.5781123  39.0536789
  10.8557813  18.6774517  37.6038829   0.8308385  20.4545161  23.5697889
   1.6273651  20.6352538  23.0827710   0.7907713  21.1700390  24.2144006
  11.1684877   7.3802991  38.5100150  11.7835322   6.6345389  38.4670827
  11.7062481   8.0381128  38.9923526   6.9765401  16.5147582  29.9327697
   6.7741314  17.1523548  29.1758987   6.0330140  16.2816792  30.1169150
  78.7097260  14.5501527  36.4862737  77.9168262  13.9960158  36.5247014
  79.3491719  13.8483286  36.1360492  65.7551511  74.6173302  47.3454203
  66.4205205  74.8292324  47.9612176  65.0707260  75.2792926  47.4685873
   9.6329868  22.5022945  27.0143811  10.3026428  21.9633701  26.4588426
  10.1656192  23.3682024  26.9388032   3.9942052  28.4714190  52.3848064
   3.2174363  28.4229161  51.8349813   3.7135946  28.1008652  53.2261957
  70.5693316  13.5705406  31.7016911  71.1785368  13.4881246  30.8944778
  70.9848754  12.8573966  32.2232389  71.8656170  18.7581655  31.8225199
  72.0633233  17.7645834  31.6767117  71.1375638  18.8787960  31.2063417
  55.9753970  82.6927323  42.4523187  55.0551945  82.4280510  42.3508259
  56.4106537  81.8541880  42.1059417   1.8727007  16.5928349  30.7531018
   1.9646512  17.3754252  31.3734809   1.0023066  16.3047735  31.1017153
   2.0340840  24.5562235  34.1759722   1.6159139  23.9448464  33.5023485
   2.9046617  24.6584372  33.7486559  20.3207034  18.7820373  32.1915261
  19.3749411  18.6473353  32.4053016  20.4735942  19.6609404  32.6702030
  79.4049864  21.1604472  27.5714130  78.6230083  21.5167074  28.0420367
  79.6309132  20.4328284  28.2147191  12.2968235  18.5000800  23.2282137
  12.0493903  18.6943018  24.1256938  12.1663716  19.4357952  22.8602893
   2.8400977  17.2288189  39.2638414   3.1814296  17.9354481  39.8442037
   2.2770637  16.7614074  39.8767905   5.0116187  22.8867731  37.2005714
   4.6457896  22.3523920  36.4330385   4.3454954  23.6233238  37.1947026
  12.0241798  14.6341057  41.6340795  11.1871065  14.7095513  42.2038451
  12.3359943  15.5048151  41.7276793  10.9526379  18.5751485  40.5739240
  10.2936746  18.0670690  41.0809916  11.8073515  18.1658897  40.8661002
   2.7627085  27.3798464  37.1899964   2.2915817  27.8975466  36.4900444
   2.2193587  27.6182035  37.9507763   6.5791185  20.9230051  51.0100390
   6.9642388  21.7744636  51.3648895   6.0629539  21.1998335  50.2363932
  16.3278008  14.6819841  52.4127080  16.1382314  13.9180955  52.9248218
  16.2702915  15.4014712  53.0885508  12.4173379   8.7221450  32.0810752
  13.1603544   9.3016410  32.3824002  11.8418875   8.8062711  32.8249544
  17.1088361  12.1679535  45.2401859  17.0019314  12.7889891  45.9821216
  16.9366960  11.3065360  45.6969310   3.7455618  17.0831280  33.3370259
   3.5265988  16.2108960  33.6641242   3.1162481  17.6557056  33.8182225
  10.5673403   6.3339987  35.5995635  10.1972589   5.6815180  36.2990084
  10.5279564   7.1540447  36.1720363  75.1443984  13.6689104  30.4680335
  74.7203983  12.9101804  30.0089904  75.6380854  14.0116755  29.7013718
  33.6452127  45.1047350  83.7475764  33.0777710  44.4680496  83.2079946
  34.2614478  44.5205415  84.1721356  59.1010566  69.4102812  39.2073129
  58.9708001  69.6688609  38.3215322  58.2219016  68.8995439  39.4121197
  67.0325560  66.2417320  36.2118882  67.7916966  65.7051515  36.3269612
  67.0393142  66.2580516  35.2058614  12.8140434  10.2734856  42.7556084
  13.5446549  10.8217992  42.9944057  12.8914272   9.5997565  43.4790533
  62.5103338  77.9743134  33.7577437  63.0806707  78.7041244  34.1043677
  62.2881965  77.4553646  34.5310188  58.0539939  79.8528746  43.8362353
  57.2438218  79.2926063  43.9629367  57.8837398  80.1827863  42.9534978
  14.0332243   5.2511060  38.2054417  13.2976071   4.7470498  38.6985874
  13.9887478   6.1277747  38.7310220   5.9355984  19.2128745  47.2249637
   6.6379873  19.8626504  47.5052053   5.1891401  19.8257625  47.0267606
  50.7946697  83.3353410  26.2755401  50.8398285  83.7384766  25.3708909
  50.2803993  84.0851268  26.7446978  49.8286175  82.8315677  29.9007168
  50.3667944  82.0593740  29.6436766  49.6023405  82.5062489  30.8340550
  61.6021920  72.5577569  36.7780583  61.3503245  73.0394845  35.9510728
  62.5192318  72.8326644  36.8885993  49.8576346  78.5981174  32.7436655
  50.2041532  77.9333950  32.1012619  50.6128261  78.7763850  33.3087305
  14.7824665   2.3283352  29.3849956  13.8946688   2.7119998  29.4541255
  14.9623314   2.5109612  28.4098388  61.9944037  76.4076179  35.8189051
  61.8392212  75.8769616  36.5971119  61.1056642  76.4017389  35.3806584
  12.2506446  16.4241670  46.9735890  12.6851124  16.0954592  46.1372646
  13.0042317  16.0856955  47.5571286  28.1157528  50.8379845  81.9744337
  27.7903041  50.5796194  82.8321914  27.3007352  50.8420136  81.4393241
  13.5723270  27.4308686  41.0737382  12.5672442  27.5608710  40.9888607
  13.8079436  28.3632360  41.2620863  10.1718231  18.1589437  25.4718113
  10.8912097  17.4776951  25.4295245   9.8792839  17.9962087  26.3715042
  16.1124570  24.6795015  25.9746777  16.9816200  24.2462520  25.8231578
  15.9415453  24.2125918  26.8261061   9.2891002  36.4693642  43.3887124
   8.5722460  35.8571786  43.4585037   9.6973273  36.1402309  42.5132030
  77.2018232  32.7073097  38.1267033  77.3058741  33.5033448  38.6681550
  76.5393463  33.0683809  37.4264328  15.8617761  40.7808737  29.5171553
  15.2443188  40.4370633  30.1409416  15.3873524  40.7406986  28.6640774
   7.8548507  22.2547957  24.4166578   8.1600135  23.1961223  24.4456210
   8.2180725  21.9752165  25.2878859  11.5835227  31.7940432  36.2920750
  11.0922568  30.9569313  36.2454331  11.9405475  31.7876170  37.1945987
  10.9684086  25.4798403  33.1037688  11.2726010  25.1612753  33.9522280
  10.2945678  24.7998720  32.8372165  22.1847638  17.8523091  36.8693922
  22.0649735  17.2550700  37.6483053  21.9366069  17.2057570  36.1147441
  30.4569206  23.9664350  40.3873694  31.0640908  23.7782822  39.6363323
  30.9730328  23.3817206  41.0479343  16.6831388  36.8761339  41.6037757
  17.5452250  36.8471309  42.1363824  16.0585331  36.7757239  42.3731904
  33.8121312  22.1334949  35.5481336  32.9198294  22.5016196  35.5011228
  33.6724562  21.3608733  36.1732665  13.7310098  17.8224712  28.7477732
  13.2160476  18.6336466  28.8071292  13.8227905  17.7325731  27.7697977
   2.3211816  34.3346169  30.3098432   2.7965381  34.2850520  31.1873603
   1.8579967  33.4913295  30.3488384   5.3087868  19.9164953  38.3581441
   4.9855012  19.4286349  37.5116956   4.4556012  20.2805014  38.6803242
  13.7299821  12.4073841  30.9287563  14.2627332  13.2229605  31.0450058
  13.1518395  12.3888018  31.7214243  22.0410150  33.0860707  42.3501310
  22.4551890  32.8275582  41.5082552  21.1195932  33.2249417  42.0905122
  74.7905615  19.4808591  38.1110909  75.3572328  18.7534493  38.4629432
  75.4202024  20.2397276  38.2538389  24.0558099  22.6650931  35.9818431
  23.6274380  23.4096824  35.5182032  25.0374908  22.8904217  35.7345983
  14.9279335  22.4590072  24.6777035  15.1622774  23.2324620  25.2130012
  15.4905662  22.5721403  23.8890716  74.7147802  25.1905593  41.1885255
  73.8867329  24.6808655  41.4036280  75.2256249  24.4769283  40.7599848
  13.9798921  19.8527540  38.6770613  13.9723645  19.3410781  39.5636565
  14.5048932  19.2154836  38.1340699   4.4545528  13.9643747  46.6636346
   5.0286586  13.4608658  47.3151766   3.9032730  14.4302368  47.3576849
  21.1620830  23.0277297  41.3247442  21.5114476  23.0418676  40.4364952
  21.3030442  22.0338036  41.5532121  19.2439451  14.2761415  30.1752696
  19.4830775  15.0110570  29.5647810  19.3204345  13.5178784  29.5818440
  20.1507637  20.9397921  49.9212363  19.6784759  20.6773709  50.7323396
  20.0409644  20.1635084  49.3599802   9.9927215  33.0434447  41.9861990
  10.0621184  33.9969867  41.7502545   9.2572642  33.0856552  42.6416211
  18.2342568  22.4629311  37.6366285  17.4239706  22.0434183  37.2647939
  17.8443008  23.1359339  38.2266654  11.2772223  29.3338570  46.6252327
  12.0614465  28.9610393  46.1808416  10.8261859  29.7298831  45.8286770
  17.9176207  34.2337729  38.1787488  18.2341452  35.1673530  38.2712013
  18.7488163  33.7725382  38.1920689  12.4552353  22.4335339  31.8767479
  12.3881328  22.6653059  30.9883022  13.1806237  22.8898080  32.2719056
  17.1919426  30.3930353  59.9067112  17.4080339  30.9009886  60.7020728
  17.8560394  29.6525587  60.0046721  20.0908690  21.4381445  36.1368340
  19.5938488  21.7206446  36.9307897  19.6710561  20.6302907  35.8540870
  13.3949774  36.9967223  32.8538787  13.6580780  36.0701900  33.0076992
  13.6347046  37.3653535  33.7474902   9.5010808  22.7767565  30.6621841
   9.7166508  21.8350568  30.4596486   8.5250955  22.7511362  30.4948285
   4.0715479  24.8781014  28.2309175   3.9819438  23.9455454  27.8690872
   5.0010254  24.8215380  28.5845776  18.2088056  23.5527944  51.5410893
  18.0160730  23.6430634  50.5395566  17.5623407  22.8692301  51.7804233
  76.3663001  21.5811411  38.4077261  76.2473415  22.1961057  39.2221738
  76.6525695  22.2897466  37.7784323  15.4480266  32.1214436  36.6878115
  15.3500339  31.5360391  37.4617037  14.7298506  32.7525019  36.7612392
   7.2546931  29.2004045  34.9574303   6.6955580  28.5233286  35.4102931
   7.6781564  28.6797259  34.2327013  13.3592770  33.1664573  40.7487116
  13.6470453  34.0806403  40.7707486  12.6687563  33.2412618  40.0547385
  10.1245742  18.3496039  50.9864554   9.1358732  18.3049980  50.9236648
  10.3314920  17.3877217  51.1676750  32.7814695  18.3261464  32.5069196
  32.6281291  17.9092430  33.3732093  33.6230435  18.7199468  32.6540176
   3.5218990  41.0819098  27.1032798   2.8936431  40.4283317  26.7269769
   3.4701211  40.8773731  28.0618681   7.1575999  18.1058343  50.6478924
   7.3746425  19.0328981  50.7551196   6.2209129  18.0728319  50.9254717
   9.4102319  37.8213971  33.2083423   8.5953958  37.4081666  33.0708926
  10.0789056  37.1809095  32.9232175  16.7259431  31.6714180  39.4836592
  17.1021196  32.2655808  38.8095323  16.3898264  32.3392977  40.1303446
  23.3114044  21.7301268  51.2520237  23.3753993  22.6344386  51.6420373
  23.8430081  21.2267814  51.9606443  13.6582850  26.2063413  38.4539495
  13.0727326  25.4110121  38.4737802  13.5849895  26.4636885  39.4009023
   7.4040273  25.3256505  31.0517940   8.3254510  25.1177527  31.0172596
   7.2284345  25.2722253  32.0429229  11.1239126  37.9139614  47.5939111
  10.5655334  38.5071060  47.0072492  10.4238901  37.3080191  47.8912466
   9.4054704  39.3623689  43.1966834   9.4906973  38.4018441  43.1509901
   9.5672357  39.5832276  42.2410434  16.3594748  24.6282576  38.3817338
  16.9780786  25.2230219  38.8485262  15.5026935  24.9330882  38.6138905
  18.6323025  21.8542474  47.3830065  18.0460384  22.2733680  46.7489345
  18.0264376  21.2590189  47.8129650   1.4303985  22.6204257  29.6119316
   1.1848273  23.5440012  29.2871765   1.2516546  22.0910222  28.8832583
  15.9121546  27.8995031  29.0231095  15.7413057  27.2551035  29.7438710
  16.4790944  28.5430277  29.5988195  12.3675734  15.8061771  35.4310286
  11.4846187  15.5744585  35.0244177  12.1902717  15.5944457  36.3570247
  11.4962661  10.8820842  38.0324347  11.8484512  11.5781098  38.6347316
  10.5526592  11.0723877  38.0866541   7.8409095  17.4214062  38.7202715
   8.6783773  17.9009130  38.5625805   7.4907607  17.9113222  39.4871191
  20.3102032  27.9712269  46.6802488  20.2656912  27.3733316  45.9255300
  21.0347790  27.4280868  47.1915393  75.9382886  13.4510073  25.1931934
  75.2043842  13.8520466  24.7247358  76.6405816  13.5418764  24.5681899
  17.4178917  24.5636075  49.0337172  17.6073832  25.0799294  48.2725999
  16.4760401  24.7124895  49.1635229  21.8119989  30.2734365  44.7937640
  21.0586128  30.7671217  45.1913827  21.4545906  30.1654041  43.8807427
   8.6491794   8.7096805  31.1954405   7.8818386   8.1420558  30.9436474
   8.6463082   8.4923917  32.1626221  17.7124707  26.1374774  46.2371896
  17.5795139  27.0233561  45.9244230  18.6284093  25.9677920  45.9706081
  77.3780784  22.3271804  22.4106666  76.8979050  21.4815800  22.2669567
  76.8348929  22.9624175  21.9352753  79.0552473  18.2798000  22.4800556
  78.6901096  18.6530259  21.6601634  79.5243717  19.0209396  22.9178390
  19.1242621  29.6494640  28.6439464  18.8094371  29.8894269  29.5071427
  19.9380175  30.1531911  28.5607872  21.3706955  30.9258964  29.3290441
  21.6203635  31.8885293  29.4176699  21.4089968  30.7145765  30.3212994
  11.2956772  20.0767649  27.8876637  11.0756592  20.4052394  27.0005064
  12.2326291  20.3984990  27.9645674  17.0275791  28.3846213  44.1114363
  16.5822992  28.7144545  44.9152154  16.3795715  27.8592056  43.6700874
  11.3701679  30.9318021  20.7490156  10.8221612  31.4862559  21.2837485
  10.9850842  31.0301148  19.8820082   9.5097141  27.3101755  25.4369383
   9.3252347  27.7860095  26.2547239  10.3308370  27.8104134  25.1226963
  11.6846168  21.4196687  41.1551475  12.5439458  21.1900111  41.6433421
  11.6757210  20.5559784  40.5999604  14.4512407  30.1366812  38.6414490
  13.4762630  29.9391263  38.6846707  14.6259972  30.2950227  39.6059100
  13.9258509  18.4764817  46.6559651  13.4879215  19.1822922  46.2412570
  13.1779296  17.8192976  46.7772090   6.1811777  14.2065346  44.3833399
   5.4565656  14.3794169  45.0258627   5.6687402  14.2815951  43.5463623
  19.9810670  12.7325918  44.7450648  19.1711743  12.5511341  44.2503673
  20.5172126  13.2118868  44.0491930  27.8341387  22.2613891  29.5984462
  28.4867664  21.4717229  29.5446479  28.4984525  22.9634528  29.5564231
  16.6798136  20.0356901  27.2961557  17.3058588  20.8113838  27.4478256
  17.1871443  19.5219175  26.6274686   7.5159952  34.4620004  43.0569930
   6.6350660  34.7379265  42.8314330   7.4177452  33.4862835  43.0652690
   7.3988960   8.1745071  49.1857696   7.5850645   8.4593756  48.2817820
   6.6020658   8.6418423  49.4585880  24.2405676  30.0079844  38.9668640
  24.4235661  29.0378311  38.8757414  24.6544641  30.1155329  39.8623458
  56.2434647  84.1731055  29.9626314  56.6590511  83.5188169  30.5620859
  56.9645057  84.4588309  29.4096404  17.3946060  37.0916236  36.5464086
  18.1318032  36.7484785  37.0989689  17.8166468  37.9977926  36.3663598
  13.3849862  34.2693026  33.0760983  13.7997157  33.4324790  33.1659915
  12.6166555  34.2152952  33.6799905   4.0953735  34.8081190  40.7410496
   3.9239437  35.7517003  40.9127817   4.7939586  34.8896870  40.0668693
  77.1399367  23.7355530  36.6885160  76.7758623  23.6719474  35.7876775
  76.7235888  24.5413400  37.0422069   3.5214333  28.3988725  45.8095657
   4.2247153  28.0258235  45.2420069   3.6291711  27.7298965  46.5711674
   4.6278279  26.1300492  56.6240257   3.9904702  25.4957346  57.0364768
   4.0121360  26.7077689  56.1308434  26.5501086  29.9708890  46.2677210
  26.9882792  30.7008220  45.8511994  26.2581715  30.3233212  47.1105798
   7.3248678  10.7294861  39.7557966   6.9806333  11.1672676  40.6171676
   7.5295985   9.8234362  40.2367761  14.5515690  25.0630969  49.0321377
  13.7122124  24.8754019  48.5677315  14.3150929  24.7175607  49.9345255
   6.7071452  26.0304490  38.9092834   6.9599674  27.0242379  38.8239317
   6.2097550  26.1145017  39.6970619  10.3702332  42.7809210  34.9386405
  10.3992992  41.7937630  34.8818860   9.9185088  42.9683795  34.0812971
  15.0092263  36.2837100  35.0002948  15.5444779  35.7256921  34.4312668
  15.6723327  36.6813888  35.5548526  24.9323353  23.3188159  49.3293639
  24.5671909  22.6884260  49.9741790  24.2790211  23.2058713  48.5845004
  13.3949666  28.4511857  45.0956880  13.1508458  27.6918522  44.5075014
  13.9662439  27.9186525  45.6906902  13.7723642  18.0257720  34.7478482
  13.2510760  17.2599866  35.0474853  13.1970183  18.7483898  35.0261834
   9.3378652  48.2975124  40.0615715   9.4398040  47.8336112  39.1806730
  10.0775155  48.9117930  39.9395594  26.7258674  27.1676929  32.8750814
  25.7887067  27.3549003  32.7555281  26.7293920  26.7548019  33.7811133
  14.0615208  20.9204399  28.5656913  14.4392521  21.8009417  28.7690670
  14.9145454  20.4411199  28.3233346  12.6523668  37.9342291  38.1340092
  12.6446455  38.1708333  37.1969928  11.6749994  37.7120657  38.2290717
  13.2601582  16.0325679  30.7582253  13.3795891  16.6127174  29.9388453
  14.0724509  15.5521022  30.8421737  11.3268791  28.1451998  64.9743930
  10.8532414  28.7059515  65.6440344  11.8587865  27.5747458  65.5582951
  76.5609640  28.4690591  27.8693333  77.1476795  27.8521656  27.3635652
  77.2044835  29.2295762  28.0001525  54.8584340  85.1899159  42.3176831
  55.1862807  84.3037779  42.2082019  54.4899927  85.3349465  41.4258048
  25.4236187  32.2545617  30.9984343  24.9916960  32.9901353  30.5098857
  26.3209130  32.2989957  30.5822872  14.0236754  28.2676141  36.4900553
  14.4199074  28.8420767  37.2271089  14.0593946  27.4057388  36.9344095
  19.5231159  23.0426196  31.8980557  19.9262432  22.2901455  32.3666883
  20.3445760  23.3479526  31.3965552  10.2067192  29.9424657  44.1450641
  10.8192589  30.1629376  43.4242019   9.7118182  29.1795469  43.7943220
  16.0303991  28.6222405  34.5379923  16.8162712  28.8092693  35.1138730
  15.3493384  28.4685620  35.2315572  15.5027936  31.1159612  28.1414400
  16.0756441  30.5145112  27.6887031  16.0057626  31.3307113  28.9747061
   2.8146454  13.7306105  27.5806502   3.2637523  13.4950289  28.4328488
   3.5374424  13.5744342  26.9355692   7.8023326  30.0036506  26.4608663
   6.8899147  30.2796413  26.5650493   8.1732641  30.3993710  27.3132532
   9.6722227  16.3078709  46.5613893   9.3915829  17.2054666  46.3425326
  10.5907952  16.4551871  46.8346212  21.6559227  33.6258800  36.3912988
  20.8029768  34.0426925  36.2000754  21.3321020  32.6698892  36.2170926
  33.3893358   6.7562788  40.3832273  32.7137406   6.1193890  40.3489549
  33.4648100   7.0384163  39.3863736   6.5969934  23.9854972  41.9585257
   7.2455210  24.6265715  41.5397628   6.5863598  23.3295708  41.2166321
  23.6070551  35.3625868  30.5559467  23.9371379  36.3222345  30.5785312
  22.6525844  35.5728027  30.6191159  12.2879224  29.5149615  34.7098267
  12.4958480  29.0159287  35.5269709  11.3616892  29.7715291  34.9052755
   4.9099420  24.3763598  54.5347743   4.8339437  24.8141730  55.3906728
   4.1319069  23.7905279  54.5283937  14.6944371  40.9288150  39.8175941
  15.2012186  40.2042684  39.3338092  15.4254029  41.1650555  40.4542731
   1.9957452  27.5776214  27.2375479   2.0781585  26.6119185  27.2082952
   2.6588695  27.7819825  27.9314607   3.2754634  32.1741524  24.8692497
   3.3607090  31.3346755  24.3829488   2.3891072  32.4884143  24.5923912
  11.9487511  35.4494629  53.9350991  10.9519386  35.6154443  53.8585937
  12.2552706  36.2439195  53.4631416   4.5632109  14.3907948  41.1208396
   5.0438106  15.1072165  40.5873511   3.6345736  14.6278588  40.7911941
  10.5294047  25.1620922  37.9487426  10.8859487  24.4667362  38.5133979
  10.4132413  24.7639166  37.0917446  19.6590886  29.6499658  38.6302851
  20.1444899  30.4676159  39.0415734  20.1161159  28.9635977  39.1804844
   6.5254234  24.9307997  36.3094392   6.2975411  24.0235711  36.5839892
   6.5930095  25.3756110  37.2098275  16.7158250  31.7209755  44.8564313
  16.4628829  31.5326351  45.7761562  15.8566796  31.7305154  44.4221898
  14.7142529  15.5490813  39.4881612  15.3218266  16.2817243  39.5865527
  15.1316982  14.9668012  38.8520091  11.3863070  33.9982069  56.0194310
  10.9139047  33.2320396  55.5894139  11.5112012  34.5943149  55.2722709
   1.7174597  15.8414520  46.0281167   2.0799110  15.2387426  46.7049752
   0.9047088  16.1198561  46.5357960  78.6036476  23.3341795  24.5329739
  77.8300488  23.0979855  25.1309792  78.2143580  22.9780280  23.7201811
  25.6498130  33.5172438  26.3898715  26.6110648  33.4872677  26.6451720
  25.6346849  32.6533821  25.8723919  12.1191397  28.5798240  30.4163406
  12.3505163  29.3439644  29.7951449  12.9429293  28.6209740  30.9678492
  19.3398320  42.1465033  38.5769863  18.4215133  41.8170804  38.3884302
  19.6079447  42.3936936  37.7115386  10.5633888  10.1973549  41.2885561
  10.7157923  10.9513758  40.7714307  11.4337591  10.0577819  41.7594502
   8.1235849   9.0923189  54.0014714   8.7632961   9.0056134  53.2742350
   8.2670717   8.1838972  54.3740532   9.2841086  21.6225554  20.0225621
   8.4664075  22.1509350  19.9597422   9.0487503  21.1647330  20.8866870
  13.4099708  26.2472079  22.9754433  13.2725757  27.1379999  22.6730577
  14.3366919  26.1974134  23.2586177   6.8705265  22.9649532  30.0181641
   6.0260375  22.5788663  30.0348015   6.7283833  23.7550299  30.6057879
  10.0583322  25.1895587  29.2432855   9.8527948  24.2868166  29.5320112
  10.9543430  25.1551798  29.0014495  15.3912327  12.4997212  35.8456688
  15.8338211  11.8484280  35.2909984  15.1286952  11.8975511  36.6191779
  30.7236017  31.6014948  37.1880883  30.1075377  31.4862198  36.4415992
  30.5045317  32.5613317  37.3956586  77.4406914  21.6313939  50.1743997
  76.7144660  21.9720094  50.8180461  77.3422165  22.3317013  49.5299490
  11.9030951  33.8275663  38.5892812  11.2297583  34.2371620  37.9630679
  12.6678226  33.7960381  38.0076056  23.4306840  19.3270515  40.0055306
  24.3609762  19.0774931  39.7134181  23.1209885  19.8397355  39.1997314
  38.0047367  37.5681701  31.5497615  37.1939264  37.3187547  32.1011030
  38.2325040  36.7392464  31.1544162  24.7593752  35.2733912  33.4654440
  23.9814158  35.2474061  32.8831747  24.8166116  34.3823635  33.7710633
   5.8465037  18.7592109  33.0781476   5.0361451  18.2244111  33.1386263
   6.5558330  18.2235210  33.2949905  23.4541319  23.8881351  38.1012763
  23.8481719  23.2902435  37.4212026  24.1592465  23.9111414  38.7641100
  10.3871503  35.5183131  40.9865192  11.2662799  35.7493627  41.3746838
  10.5672369  35.7351787  40.0594021  15.7530582  40.7512226  24.4734972
  16.3881857  41.4786407  24.2707697  16.2045449  40.3473438  25.2386392
   1.4868751  33.0951102  27.5338020   1.4833417  33.0076372  26.5472576
   1.4608128  32.1341689  27.7455585  16.8816040  31.1168942  22.1036130
  17.7217633  30.5932534  21.9430448  17.2120862  31.5238094  22.9660000
  75.3693231  28.0396007  39.6424712  75.0575725  27.7607810  40.5126300
  76.1013229  28.6313318  39.9184055  14.1964365  24.1267682  42.3662588
  14.5097255  23.7300613  41.5488897  14.9372542  24.3354346  42.8640334
  19.0439275  31.5424176  50.1003795  18.4094359  30.7977517  50.3005882
  19.5861094  31.1645543  49.3724459  23.6425765  28.7684784  47.1751991
  22.7739698  28.3890931  47.4400135  24.2453789  28.0293774  47.4525749
   7.7264057  30.8576823  29.1065940   8.4356038  31.5182938  29.3491768
   7.6562680  30.4067921  29.9796862  18.2604578  16.8724943  36.6274645
  18.1444292  15.9190589  36.6022426  18.7303457  17.0546238  37.4486477
   0.7616456  19.3288564  36.9822492   0.6523031  19.9625884  36.2304953
   0.1258191  19.6956630  37.6161693  25.3259751  30.3447880  48.9857815
  24.8546694  31.2556192  49.0298112  24.7107419  29.9072086  48.4245887
  19.8595619  20.9034894  44.0113749  20.5116511  20.5775519  43.3342684
  20.3023307  20.7168174  44.8584763  15.8306527  35.6685594  39.2342095
  15.9664302  36.1146929  40.0812034  16.4514677  34.8946336  39.3225815
  11.0617177  23.5992350  35.6113294  11.0240465  22.9087916  34.8778024
  10.5966976  23.0338008  36.3217723   9.8718062  21.9128921  37.3733073
   8.9355291  21.7370079  37.0822041  10.2913806  21.0902902  37.1872849
  54.9166606  79.5816676  24.0744039  55.1185123  79.4804221  23.1680981
  54.1954143  78.9377547  24.2050306   3.5203814  14.6284069  34.4651876
   2.6763434  14.2450472  34.1781759   3.2846855  14.8202182  35.3846717
  19.6841786  36.7694779  38.3625823  19.8642103  37.7248737  38.3939896
  20.5447543  36.3492497  38.5518303  12.2649188  12.7204007  45.1938825
  12.2252655  12.2998649  44.3423397  11.3777843  12.6220261  45.5580051
  24.6435471  11.9835788  45.5635825  24.5562010  11.0231090  45.7247324
  24.0458790  12.3950546  46.1330679  26.2349049  30.0814553  28.1761876
  26.2903842  30.3146404  27.2458003  27.1694876  30.1890926  28.4197785
  27.9775676  32.7266309  29.4773210  28.2739944  31.8719770  29.0846380
  27.7929049  33.2547078  28.6202535  19.5013405  25.0063808  42.3120427
  19.2050916  25.2113095  41.4163641  19.9697677  24.1262003  42.1283456
  14.3349109  27.5739259  26.7177244  14.8740820  27.7839520  27.5169129
  14.7645537  26.8957387  26.2870724  20.1503311  27.3986095  35.3949311
  20.5073238  26.4746281  35.4408817  20.9658534  27.8779772  35.6018058
   6.9263878  19.3321502  40.3728954   6.6380101  20.0702133  40.9733691
   6.3108195  19.3677511  39.6405165  29.9195588  29.1542718  39.0535539
  30.1356450  28.3582385  39.5262654  30.5284342  29.8346510  39.4640068
  26.2957665  10.5392915  35.3074005  25.8967118  10.4351196  34.4023995
  25.9779853   9.7443169  35.7899047  22.0243415  26.1951984  47.9119045
  21.4216039  25.4173649  48.0486283  22.6904677  26.0929380  48.5779479
  15.7655672  24.7235577  21.3776327  16.0323661  25.3141427  22.1403580
  15.6990389  23.8745421  21.8781409   8.4099850  14.1052992  28.8106928
   8.8336549  14.9348971  29.1009981   8.0318156  13.8156058  29.7380926
  79.0663436  23.1419585  43.5445206  79.6058788  23.5704686  42.8096653
  78.6332030  22.4404487  43.0793563  24.8777564  11.1172668  30.4540519
  24.5669495  10.1334643  30.2825630  25.8425408  10.9117429  30.2941719
  17.8270360  23.0119695  34.5757534  17.2680491  22.4583536  35.0843154
  18.6983433  22.6056646  34.7069023  10.4171039  17.9978675  55.7962983
  10.3014159  18.6981853  55.0913118   9.4554670  17.9066841  56.0541791
  17.4040353  17.4213614  26.0953055  17.3686618  17.2022174  25.1251432
  17.4980372  16.5212034  26.4941780   3.7019211  28.9913447  28.7320597
   4.6653990  28.7830362  28.8352838   3.5200512  29.3314872  29.6218908
  17.9498361  23.5698908  29.7934496  18.2832137  24.5315970  29.9737122
  18.2888993  23.1751464  30.6105762  19.1220715  19.2933548  41.8322454
  19.1989019  19.8091642  40.9726401  20.0835971  19.1289246  41.9751110
  43.6642093  51.5073647   1.9998047  43.4562100  51.6687917   1.0588159
  43.8877843  50.5898717   2.0242368   5.3198223  27.2645671  35.8747803
   4.5176410  27.2115629  36.4261717   5.5632378  26.2919170  35.9323483
  18.3407058  27.7884622  32.9721852  17.6707648  27.8935018  33.6388766
  19.1007669  27.4826517  33.5151310   3.8982832  23.1085581  45.0583110
   4.6345611  23.6800343  45.3632092   3.3494093  23.7034790  44.5351466
  16.3510045  12.0824489  39.6046279  17.0898062  12.5247986  39.1840146
  16.8049420  11.2730071  39.9550197  11.2439021  23.6987524  42.8094595
  10.9005867  22.8862712  42.4929536  12.1709224  23.5225709  43.0020931
  28.9006700  18.4774304  36.2616644  29.2400876  19.3672966  36.3011294
  29.5787482  17.9216980  36.7532025  15.8307000  36.8604089  28.5293277
  15.1233125  37.3915116  28.8908238  15.6108435  36.8091380  27.5798293
  18.1662009  26.0291972  30.8695080  17.1814512  26.1871145  31.0641675
  18.5374385  26.2508877  31.7308066  13.2643129  27.0198034  33.1088894
  12.4522417  26.5186511  32.9818565  13.0168367  27.7530727  33.6707295
   9.4235365  22.6229124  40.0230294   9.7190655  22.2608824  39.1720933
  10.1778428  22.2587352  40.5860152  15.4811113  23.9914411  32.3994108
  15.0448509  23.9604863  33.2617314  16.2852634  23.4910342  32.5360478
  10.3931477  60.4387355  51.2843518   9.8791117  59.7869245  51.7730349
  10.9706135  60.7825289  51.9661596  10.7938811  33.7629528  24.8136727
  11.3187949  33.9796707  25.6051954   9.8786355  33.8386138  25.1999119
  13.1324377  36.2882462  25.2776717  14.0207841  36.7286101  25.1119286
  13.4356091  35.3477138  25.3609463   6.7447875  13.6135094  38.4173442
   7.0483578  12.6944056  38.4576007   7.2268962  14.0050711  39.1629773
  19.6281982  28.2432546  51.0821877  19.4779416  27.3394282  51.2897560
  18.9468275  28.5395284  50.4786392  15.4456911   7.5002747  32.3091629
  16.2529958   6.9574536  32.4042277  15.0573187   7.0428700  31.4703538
   4.5724551  27.2015999  33.1005709   4.9453987  27.4720065  34.0146465
   3.9784190  27.9788586  32.9181619  17.7492844  34.8503615  29.2118355
  17.8185843  34.2876122  28.3747796  17.0977982  35.4817526  28.8958637
   5.3372250  12.5832050  34.4184960   4.7335368  13.3258226  34.1635996
   6.0937729  13.1698691  34.7368547  11.6837565  29.7432094  38.5702792
  11.1894168  29.0148480  38.1298734  10.9501621  30.1889816  38.9988133
  13.6346778  21.4038202  36.6355273  12.8296989  20.9710057  36.3097261
  13.7389120  21.0530096  37.5548055  13.0392798  36.4343650  41.4703422
  12.9590520  37.3287064  41.2353324  13.7485961  36.3870005  42.1536909
  14.7277808  24.7199374  54.6327853  14.8403731  24.0560695  55.3564304
  15.5188139  25.2617064  54.8315899  23.2943469  38.3228533  37.3138651
  23.3024871  37.4887745  36.7621111  23.9665989  38.0871722  37.9666288
  11.7378359  38.4302068  26.3374236  12.2756441  37.6371431  26.1488906
  10.8520952  38.1284944  26.0850687  32.7426042  30.3760645  34.3788775
  32.2299773  29.8591359  35.0656601  33.6360724  30.1674236  34.7271740
  29.1209798  37.3894330  39.5297937  28.5289536  36.8008577  40.0438886
  29.4758320  37.9924376  40.2145369  23.3200694  26.7318507  38.3790364
  24.1636122  26.3495903  38.7271313  23.1246212  26.0059468  37.7726518
  14.9032458  43.2238317  31.3671955  14.6048769  42.3411553  31.4379974
  15.1804984  43.4927429  32.3025731  25.0661049  30.2429151  41.7166413
  25.1604747  30.8986571  42.4324660  24.8218833  29.4380158  42.2151540
  20.6849042  39.1925309  37.7628375  20.8945456  39.7715363  38.5426720
  21.5934892  38.9465445  37.5139049  13.8256423  22.9575350  34.3313456
  14.1076519  22.5279127  35.1569137  12.9239202  23.2825133  34.6823305
   6.3717562  39.1788365  43.7950246   6.8275846  38.3533759  44.1085724
   7.1427379  39.7482336  43.6491402  10.1763034  28.3249054  49.6044573
  10.6716045  28.3983447  48.7858671  10.5947742  27.4350757  49.9103062
  11.0179737  38.9121126  30.2777056  10.2931070  38.6649341  29.6661228
  11.0277519  38.1193956  30.8191793  25.2759922  37.2155119  38.8883276
  26.1705615  36.8198107  38.9115401  24.7835018  36.7254042  39.5442861
  22.1687502  27.6088514  42.5431720  22.5234330  26.7504383  42.3029090
  22.7935680  27.9480347  43.1396306  28.0407028  29.2871088  37.0866534
  28.8749427  29.3786227  37.6613462  27.5712711  28.7082875  37.7856719
  27.5693163  34.0246674  32.1607409  27.9078627  33.1500586  32.4324240
  27.8928856  34.0481364  31.2179029  18.2800675  39.7498941  36.6425989
  18.4360176  40.6639889  36.2801210  19.1659316  39.6469214  37.0782112
  19.6290104  33.5928884  40.8726055  19.6290116  34.4546001  41.3095149
  18.7780667  33.2321268  41.0718291  15.6194516  40.3728297  36.4984776
  15.8860117  41.3092338  36.5238478  16.4198963  39.8806725  36.7615779
  22.1477447  35.5349485  38.6278953  22.8223403  35.5023581  39.3676208
  22.5064693  34.7955413  38.0960575  23.3268032  36.0980428  35.9157928
  23.7474851  35.9984337  35.0066311  22.6960884  35.3352013  35.8692349
  22.2053873  41.6694519  42.5985891  21.2721644  41.6206688  42.3138088
  22.3941886  40.7249829  42.7860532  16.4936660  41.3701154  41.8862723
  16.6553010  40.7848577  42.7026352  15.6853689  41.8603596  42.2665503
  21.0713935  36.3974952  30.4983780  21.0338570  37.0211227  29.7565045
  20.1219867  36.2459298  30.6508606  26.0606497  20.5090107  40.0776944
  26.9236038  20.8179055  39.7193662  26.2690170  19.5260707  40.0334943
  33.0636185  26.8928933  41.3112740  33.2667100  26.4013715  40.5127227
  33.4384662  26.3796058  42.0088665  14.2018349  41.3069920  33.4240964
  13.4618906  40.6799967  33.4335115  13.8733348  41.8963890  34.1787924
  19.4782864  45.0634658  38.5779785  19.9774745  45.7624979  38.0651181
  19.5059776  44.3302062  37.9347772  30.7245613  26.8663977  39.9920180
  31.3131561  27.0626988  40.7668301  30.9869934  25.8810507  39.9248840
  33.6868797  32.8535612  39.6116263  34.5520105  33.1749010  39.9459874
  33.2071530  32.8479106  40.5117921   6.8364569  39.7830906  49.2645109
   5.9650274  40.0670157  48.9542739   7.2728797  39.5355193  48.4079046
  13.4113061  46.5290862  38.5564860  13.4774778  45.6577759  39.0096756
  13.6032420  47.1284898  39.3561345  19.6821623  32.1742926  52.6855523
  19.5078967  31.8537949  51.7739395  18.7953941  31.9954802  53.1240805
  27.1892805  28.8940998  40.1520428  27.9186788  29.5361499  40.4085201
  26.4233933  29.3435147  40.4669972  23.7791586  18.7351841  34.5370889
  23.1932503  18.6128843  35.3432595  24.4319759  18.0454025  34.6962148
  17.0501804  33.2299856  41.9393645  16.2577357  33.3778974  42.4617011
  17.4428582  32.4880717  42.3995310  35.7529550  59.9143969  31.7211985
  36.5213054  59.3973487  31.3782475  36.1910167  60.4570883  32.4286824
  29.4695591  65.7971761  33.5067127  30.1592750  65.1017106  33.6255514
  28.8979855  65.6308762  34.2984904  24.3560553  59.9766684  32.6929471
  23.6789635  59.2530257  32.7690246  23.8751926  60.6396983  33.2448337
  34.8489154  62.2067412  33.7887766  34.1411362  61.8720776  33.1653073
  34.2483963  62.6121401  34.4774496  33.7666250  57.4000943  28.7352438
  33.5862280  58.0899815  29.3788706  34.2523546  57.8924814  28.0398564
  35.1398593  59.2013100  26.9287816  35.8605164  59.1011913  26.3082675
  35.2627948  60.1165634  27.2048137  43.7339493  71.9944498  50.6427549
  43.2329930  72.8219870  50.5650792  43.3570670  71.4592305  49.9438979
  47.1457233  61.0313420  39.3789175  47.5784877  60.1371601  39.3846779
  46.4386986  60.7913065  40.0348398  40.7336769  69.0213046  38.3769591
  39.9620406  69.5252028  38.6686707  41.1880200  68.7984585  39.1607746
  40.9993912  62.8517093  45.5705280  41.7489791  62.6232997  46.1345194
  41.2101513  62.2094941  44.8199918  35.2177961  68.7920368  50.9615170
  35.5961598  68.5862380  51.8232176  35.0079845  69.7365912  50.9856228
  43.4668441  68.4658503  32.5365069  43.2208460  67.5079106  32.4709260
  42.7334818  68.7946786  31.9410532  42.3466349  66.2292532  31.5384815
  43.2653236  65.9666153  31.2465789  42.0226917  65.2519262  31.5991998
  39.7408945  70.1433947  48.8674117  39.5774571  70.3724964  49.8453539
  40.1451112  69.2612939  49.0247982  38.7734237  65.8430896  42.8421399
  39.0899892  66.1985256  43.7031203  39.6124422  65.7091958  42.3979183
  44.0914704  61.6156269  34.3027028  44.9081743  61.2641622  33.9203778
  44.3071474  61.7800028  35.2168765  44.4154431  71.9776791  44.1442692
  43.7242072  71.8700971  44.8864648  44.1544361  72.9002529  43.9524706
  44.2044750  61.9449106  30.7095452  44.1043782  62.4572577  29.9359008
  44.9093981  62.4278443  31.2219501  57.6464943  72.1664786  43.7213422
  57.9817972  72.9367164  43.2762880  57.9103537  71.4643931  43.0902714
  45.5266741  72.0147272  47.8192275  45.7452156  72.7719800  47.2431661
  44.9673522  72.4616347  48.4968840  45.7588300  58.3926728  33.8551182
  45.0907129  57.8786095  33.3556571  46.1778548  57.7363767  34.4421463
  50.3819350  57.3176321  43.1108277  51.1197901  57.3972412  42.5064155
  50.2139109  58.2853616  43.3358621  46.7002347  63.1423287  31.2882983
  47.3399322  62.6479534  30.7146622  46.7708396  62.6001245  32.1193840
  49.1654917  67.7853614  35.9909598  48.4593058  67.2494484  36.3524476
  49.7083048  67.9642731  36.7726003  45.4040375  63.1869778  18.7699660
  44.7276385  63.9233098  18.7373942  45.2053811  62.8266120  17.9119649
  42.0194891  63.7066679  31.4807285  42.7732552  63.3430846  31.0055787
  41.6554699  62.8293059  31.8691435  31.8600075  77.4963793  32.7312377
  31.7636511  76.5283239  32.5080391  31.9630800  77.9284983  31.8708796
  68.0944827  13.7948512  41.1245582  68.5221734  13.5247218  40.3113132
  68.8351200  14.2583282  41.5139931  44.4011569  66.0502560  47.9071228
  45.2612833  65.5817456  47.9629958  44.6100573  66.9864806  48.0767081
  52.6409226  54.0849302  31.7421265  52.1717233  53.6647655  32.4762695
  52.1861423  53.7537839  30.9701534  50.8960691  66.4994172  40.5429791
  51.3684107  65.6282112  40.6505594  50.2187359  66.3461317  39.9087174
  48.3981606  62.7750990  52.6456551  48.3510554  62.1292268  51.8683777
  48.3878467  62.1381842  53.3510374  38.9092482  73.5323370  38.2242257
  37.9910419  73.2614445  38.4280916  39.0158505  74.3000639  38.8450134
  35.3142940  71.1497402  45.8923821  35.9331178  71.0156558  46.6644478
  35.6504562  70.4444046  45.3026220  50.6970899  66.4756069  34.0016936
  51.4822977  66.9150289  34.3698032  50.0134969  66.7553027  34.5938520
  71.0218022  60.6576729  37.2920619  71.4749229  59.7625708  37.1196547
  71.7311154  61.2420298  36.8990021  44.6249880  66.1402333  45.1601211
  45.6031142  66.1288503  44.9026596  44.7444808  66.0805526  46.1339476
  50.5244586  64.3847873  48.8369325  50.8159612  63.6814957  48.2401570
  50.6301208  65.1945510  48.2972527  50.2104378  63.1811915  25.2708117
  50.8075192  63.5077357  24.6419873  50.6595913  63.4832520  26.1026394
  49.9555926  60.5740890  38.3941624  49.0976177  60.8883230  38.0546507
  49.7695740  59.6205545  38.4223331  51.0718195  59.7651396  44.9650280
  51.9585348  59.9627235  44.5872777  51.2720884  59.2150397  45.7473859
  38.9730306  61.7012407  46.7793511  39.4954516  62.2516876  46.1416952
  39.0271885  62.1516982  47.5837072  42.3817830  78.7109344  43.2134630
  43.0404816  78.1471642  42.7637665  42.8688383  79.6077160  43.0717092
  42.8850928  67.4461126  43.4573480  43.6280478  67.2434535  44.1041414
  43.2013948  68.3917158  43.2641024  67.9020446  70.0720873  39.3604601
  68.8620482  69.7474367  39.3630563  67.6785029  69.8592004  38.4202306
  54.2247444  74.3121212  38.0802098  54.0387298  73.7912690  37.2931532
  55.1886977  74.4982819  37.9963491  58.8568857  72.4645629  28.2876068
  59.1073890  72.6113449  27.3335370  58.7039082  71.4886012  28.1799437
  44.4151916  68.5233045  35.2313110  43.6742940  68.6581888  35.8777805
  43.9529541  68.7999269  34.4126711  54.2362585  85.1406529  39.0953864
  53.4864685  84.6697532  38.6572038  54.5519829  84.3752673  39.6845178
  46.1956641  75.5345825  34.0998759  46.5771584  76.3711232  33.7649854
  46.3819658  75.5979139  35.0468462  44.5987847  76.6590535  51.3111219
  45.1904370  77.4256892  51.1302796  43.8392804  77.1622073  51.6952862
  58.6092926  17.8518615  51.2736439  58.2619066  17.4145566  50.4041721
  59.3509328  18.3393804  50.9292808  37.3967132  75.1198414  43.9372732
  37.9875468  75.8563869  44.1790385  37.7141482  74.9094313  43.0091495
  50.7253041  64.6846763  21.1404684  50.7150626  64.6635312  20.1612792
  51.4911101  64.1083211  21.2665010  38.8759061  63.9160569  35.2525309
  38.2722694  63.6608079  34.5670878  38.3252381  63.7454928  36.0673558
  61.0729552  68.7377839  28.1491232  60.2032665  68.8461150  28.6201709
  61.0470857  67.7734218  27.9219624  49.4724984  65.9493862  38.1989048
  48.8488843  66.4530931  38.7140052  49.3277414  65.0194134  38.5265115
  51.2564922  66.0468837  25.9459482  51.1242072  66.0803442  24.9787085
  52.2499872  66.0699004  25.9444838  49.6412203  71.2731832  39.8503068
  49.4985147  71.2309472  38.8775401  50.6087412  71.4182923  39.9240469
  46.2557973  60.8961390  33.0031864  45.9745041  59.9651815  32.9781312
  47.2238230  60.7694720  32.9461337  41.7792616  61.9539197  36.1970465
  41.4004104  62.4482376  36.9107666  42.1333677  62.7622217  35.6346637
  43.3840751  62.0090370  23.9059492  42.9961278  62.8876629  23.9015353
  43.6690959  61.9385367  22.9287755  45.7750545  76.8031403  42.8982941
  46.1856995  76.0962185  43.4546957  45.2687025  76.2678120  42.2809803
  40.4983326  59.8508276  28.8850019  41.1856971  59.5700715  29.4874204
  40.9231706  59.7297250  27.9842583  56.5000804   3.8049047  34.2716596
  57.2219905   3.3083839  33.7637015  56.9140243   3.9628196  35.0992132
  52.6085622  67.2107337  28.6081694  51.7493057  66.7665974  28.6288994
  52.5409620  67.8258268  27.8464978  52.6655346  68.0931060  35.1810677
  52.6435214  68.8972298  34.6966969  52.8886026  68.4731493  36.0777516
  48.6047050  63.5703618  39.5269922  47.9028143  63.6974066  40.2235201
  48.3428020  62.6735214  39.1815910  64.5971695  76.7152575  38.7644910
  63.7837485  76.2618288  38.3981078  64.8294796  76.0540171  39.4609655
  50.2007014  64.8047662  30.9198441  50.0535232  64.0076086  30.3390907
  50.1138740  64.3975385  31.8140817  43.9241376  71.9589016  40.6354592
  42.9829406  71.9108689  40.8147823  44.1893506  71.1556984  41.0905711
  60.1639456  68.3580754  46.2304914  61.0676537  68.7932647  46.2436692
  59.6814962  69.0827481  46.6461433  61.3907584  73.7326508  34.4003835
  60.7664891  73.6556298  33.6538692  62.0900112  73.1673465  34.1410725
  59.9311854  68.4447244  36.0694178  59.6847208  69.4102772  36.1853254
  60.9036060  68.5425886  36.4495945  45.0251586  60.7753778  37.6125125
  45.8433807  60.9750282  38.1225362  44.8945705  59.8458844  37.9038136
  46.4959588  72.9406671  40.0065177  45.6241131  72.7247862  40.3599300
  46.4846789  72.4263331  39.1279308  47.0752868  64.7523557  33.3545548
  46.6665034  64.3794390  32.5371122  47.5384209  65.5222243  32.8988755
  61.7395665  66.2712497  45.6258038  61.2064650  67.0862686  45.7007603
  62.5114496  66.6278149  45.1666932  52.2186937  71.7700385  40.2567663
  52.2683651  72.7281371  40.2608687  53.0720037  71.5550129  40.6567517
  47.0266624  64.1889305  36.0331306  46.5971990  65.0418002  36.2902227
  46.8310945  64.1256632  35.0723144  48.7001668  70.8694063  51.0831500
  48.4972721  70.5634885  50.2207275  48.4034707  71.8416989  50.9719354
  38.9513982  79.2246222  38.1058927  39.7805372  78.9411408  38.5383983
  39.2872912  79.3861248  37.1970633  44.1083373  74.8209396  41.5656045
  43.8371674  75.1733753  40.7304714  44.1811978  73.8744332  41.2990457
  37.6608013  63.7200004  45.1058655  36.9257378  64.1510473  44.5851567
  37.2020745  62.7984945  45.0784148  47.0818793  66.9730137  20.9001930
  46.7766360  66.8783630  19.9624631  46.4232771  67.7294488  21.1417264
  36.4599332  68.4579258  55.9052181  37.0206743  68.0960497  56.6981936
  35.6089567  68.5323011  56.2765797  49.4735032  78.4087741  47.7374675
  48.5924374  78.1741815  48.0381580  50.0009562  78.2941992  48.5804971
  43.2603432  74.6214582  44.2538618  43.6760731  74.5768974  43.3756346
  43.7260275  75.4181343  44.6452679  56.7447258  80.4793327  28.6181436
  56.4277776  80.4802202  29.5351409  55.8918291  80.4281775  28.1548272
  19.1539454  73.1585627  37.9196760  20.0350965  73.3994575  37.5150773
  19.2931428  73.6646516  38.8179206  72.2154218  13.8003631  45.4551874
  71.9172794  13.7556709  46.4051049  73.0408763  13.3266060  45.4959004
  45.9308238  78.7830818  50.4566330  46.1510114  78.7268423  49.4868589
  45.1516970  79.4353840  50.3737438  53.2730986  68.3788676  40.7374706
  53.8459561  67.6574535  41.1672506  52.3859024  68.0357400  40.9457490
  58.0012676  67.0862419  44.5971687  57.7347889  66.2196800  45.0689018
  58.5374441  67.4871696  45.3270835  56.0404554  80.6244428  39.2170739
  55.7382493  79.6946718  38.9501151  56.0461625  81.0280814  38.3819238
  46.1573328  67.8948297  42.9668423  47.0220638  68.4045233  42.8228931
  45.9414744  67.7746294  41.9909994  54.1801460  66.0116674  34.4005441
  54.2201444  66.0181383  33.4395590  53.4671806  66.6192877  34.6512203
  45.2493183  73.9163369  32.2804299  44.3236872  73.9029224  32.6341909
  45.6637668  74.4884440  33.0307414  58.3362144  67.7600600  30.7493504
  59.0151057  67.9846766  31.3839563  57.7071031  68.4919982  30.8639898
  54.8999365  77.4509901  41.1414501  55.8399533  77.6118859  41.1760621
  54.7788868  77.7295895  40.1629867  49.9103463  76.2030503  37.2698832
  49.7182295  75.5907502  38.0263818  49.0475870  76.2217258  36.8223386
  54.1050803  77.3003829  27.3729994  53.5761742  77.4402136  26.5454467
  54.5194127  78.2545395  27.3702699  47.1646615  74.9544909  44.3069836
  48.0758675  74.5894498  44.5705600  46.7032638  74.8484944  45.1637168
  30.2178669  75.7920953  41.0612967  29.6169011  76.4493225  40.6477069
  29.7739239  74.9851235  40.7582007  69.1651386  10.9671385  35.2799466
  68.6395494  10.4713108  35.9581944  70.0664149  10.7039091  35.4815307
  72.7256187  17.4683989  45.5048290  71.8561345  17.2826006  45.8341057
  72.9087875  18.3398612  46.0053868   3.3282618  10.9066072  51.1291704
   3.3330767  11.7622857  51.6737188   2.5498384  10.4509791  51.6000532
  38.7035442  67.2203287  35.6925716  37.8303434  67.4449913  35.2729766
  38.5849318  67.5214962  36.5709311  60.0600450  65.3806443  33.6312707
  60.9596779  65.0349865  33.6175716  59.6589029  64.7864293  32.9675155
  55.8642960  76.2370360  46.5137271  55.9745849  75.5592675  47.2279444
  54.9448280  76.2377291  46.3882992  42.1960772  64.0375064  34.6158233
  43.0153463  64.5294354  34.5204129  41.8455318  64.1624675  33.7105326
  39.6703721  71.2002190  32.5828512  40.0748872  71.9710603  32.1191723
  40.2174223  70.4649135  32.2865952  48.6083256  57.4058693  25.3012050
  49.4691337  57.9120384  25.3647022  48.5377001  57.2187896  26.2534149
  47.1692916  77.6944009  32.9375177  46.9668534  77.4277155  32.0127787
  48.1402049  77.9047776  32.8025311  42.4077583  55.9959141  32.5704422
  42.1840546  55.4243849  31.8244745  42.2384375  55.3507137  33.3556286
  47.6757014  61.5327225  36.4678515  47.2878451  62.3993432  36.3471218
  46.9196211  60.9951811  36.6562857  56.7481470  81.5550871  25.0949458
  57.1932912  81.7922512  24.2519082  56.4678297  80.6324524  24.8619925
  44.2402334  57.5451852  31.2407208  44.3474856  56.8956007  30.5259321
  43.8423800  56.9747718  31.9685927  58.1589704  70.3285587  18.3107457
  58.6003232  70.7215836  19.0980098  57.8649426  69.4903305  18.7441731
  51.3261452  71.4195951  18.6499692  50.8440808  70.7923023  19.1884803
  51.8495455  70.8440838  18.0652334  40.9374622  61.2650922  43.3846049
  41.4273172  60.9991811  42.5781395  40.0315577  61.2646496  42.9664216
  57.9672990  82.6033322  27.2420855  57.4871035  81.9760105  27.7712130
  57.5144531  82.3740140  26.3711323  77.9512259  13.0079893  42.4330027
  77.0389625  12.6131128  42.4919515  78.4420754  12.1922557  42.8533349
  46.8267619  79.1439210  35.0522195  47.0513674  80.0330001  34.6703749
  47.0242091  78.5661237  34.2443651  58.6191736   6.9259256  29.3879393
  59.1821603   6.6991288  30.1497971  59.2987315   6.7187335  28.6601590
  50.9074794  68.9286466  38.0611083  50.9045197  68.5424660  38.9862680
  51.8225618  69.1706895  38.0323995  24.9608547  68.3115171  60.1280496
  25.0148854  68.6802245  59.2029760  24.4394141  67.5072135  59.9742130
  12.9519115   8.4286057  44.5614229  13.6567642   7.9116858  45.0122463
  12.1679156   8.0678451  44.9710071  55.9807968  74.1137609  42.0526404
  56.2685428  74.8823878  42.5889105  54.9903774  74.3381987  42.0358974
  47.9050758  67.1352387  39.9862597  47.9530313  67.9788387  40.4934378
  46.9191567  67.0374984  40.0040136  56.5218056  78.4909296  51.0651970
  56.7923619  78.0492359  51.9284909  57.3349631  78.2961311  50.5558647
  13.8549685  15.2670047  44.8941807  13.5609799  14.3958823  44.8238641
  13.6166060  15.6996888  44.0625609  50.5016081  84.6613297  40.0752361
  51.2708902  84.4859475  39.5039324  50.6748254  84.1105166  40.8572994
  40.6361026  71.1120844  41.0038242  40.8846896  70.2501236  40.7600478
  39.8407973  70.9733983  41.5836971  41.0893547  75.4473282  34.3705881
  40.8538502  76.1866364  33.8263634  40.2315031  74.9638026  34.5376754
  41.4256292  69.3010526  31.0340443  40.7879745  68.6792869  30.6432822
  41.0946851  70.1411700  30.6356874  52.2829701  70.4085317  22.1328639
  52.1889853  69.5268078  21.8271763  53.1222470  70.6642925  21.6793490
  64.2363659  65.9426250  36.7889734  64.0928248  66.3923870  37.6647531
  65.1648981  66.1212032  36.6720306  51.7057759  58.1157336  36.9028664
  52.4859081  58.0448353  37.4506132  50.9835555  57.9974534  37.5979202
  44.7670730  81.4328134  38.0106550  45.2976352  81.9770490  37.3828073
  44.7837031  80.5805170  37.6264194  51.5357584  73.3322940  32.9867056
  51.4450558  72.6126318  32.3227940  50.7370730  73.8832233  32.6731808
  51.8984257  67.0746788  49.4287164  52.8028675  67.1138769  49.7585652
  51.9278516  67.6040420  48.6106965  54.2023668  62.3541297  24.1133783
  54.0961795  61.3940314  24.2405981  54.4101614  62.3402199  23.1255627
  61.5577574  64.5595992  38.0402961  60.8595490  65.0683863  37.6067381
  62.1610851  65.1446587  38.4770730  62.2303389  71.8218437  49.7917783
  63.0376726  72.0105375  49.2300753  62.2973299  70.8061731  49.6937935
  64.6351170  74.5009117  41.1401010  64.0036376  74.8278842  41.8387450
  63.9847900  73.9029453  40.6669231  45.0181700  68.6724123  48.1300421
  45.5537547  69.0128387  47.3849242  44.5629110  69.4770431  48.4274411
  34.0830572  65.2759286  33.2899456  33.8147216  64.5301335  32.7395008
  33.8794295  64.9156992  34.1767730  42.0961877  68.5517025  40.7915113
  42.5599770  67.6791072  40.6124704  42.4323094  68.8643177  41.5730599
  41.8698642  58.6578467  26.8570500  42.8213137  58.7226947  26.7397945
  41.7406481  57.7229715  26.9441030  39.5950875  64.0508492  48.1989124
  40.4211261  64.0780235  48.7262063  38.9381472  64.4321681  48.7987138
  31.2028282  69.4630658  28.5466046  30.4666390  69.2955164  27.8906042
  31.5022896  70.3379106  28.2316382  43.0987379  56.6002099  35.6146245
  44.0682534  56.3347447  35.6196933  43.1797939  57.5566540  35.8829692
  51.0035293  58.9044816  25.6108730  50.6639633  59.7276887  26.0845492
  51.7691437  59.3754840  25.1851720  46.6103154  69.2950938  52.5686203
  47.2288683  69.4823894  51.8834657  47.0695615  68.5765033  53.0500188
  50.9924470   7.0412952  40.6443518  50.5556406   7.8936425  40.7557098
  51.1967538   6.9552182  39.7421374  53.0852642  60.7470221  48.1820084
  52.1782250  60.7336259  47.8435067  53.1055839  61.6734908  48.5590167
  42.2693160  70.4181594  36.6980796  42.1297573  70.0381568  35.8505291
  41.6636998  69.7455535  37.2639929  47.5331895  55.6514218  23.5948791
  48.1924176  56.3282831  23.8775143  47.3117778  55.2203452  24.4253721
  59.1204720  62.3343490  43.3790382  59.8317097  61.6871349  43.5297570
  59.6612233  63.0867519  43.1310486  43.0301675  59.3506194  35.7462864
  43.9739921  59.4596652  35.4874861  42.8464245  60.3511531  35.7518412
  35.9841295  78.5049040  33.1183918  35.3448868  77.7885393  33.3551331
  35.9738798  79.0014847  33.9769435  53.7316412  65.0088198  25.4001593
  54.2748297  64.6591056  26.1830919  53.8219640  64.2753408  24.8009604
  55.9525388  64.2508591  35.5909283  55.2183025  63.8109002  36.0486358
  55.3903214  64.8922486  35.0392460  54.8443304  66.6124176  38.4847337
  53.8865342  66.5880264  38.1595267  55.0684672  65.7071700  38.2605944
  58.4336252  67.8932275  50.5543997  57.6660689  68.4873094  50.3130409
  58.1982359  67.1473407  49.9286773  32.8371133  71.9082724  35.4492677
  33.7708619  71.5831729  35.5506645  32.3989939  70.9936329  35.3591660
  46.1915992  82.5194114  35.9132484  46.9789192  82.3911038  36.4501307
  46.5713403  82.3169176  35.0036208  60.7904906  62.4390372  30.2971316
  61.4276405  61.7257901  30.3523851  59.9326166  61.9347154  30.4151699
  60.2729448  74.3951066  42.1483731  61.1363925  73.9835905  42.4059746
  60.3936964  75.2490792  42.6841514  46.4176962  70.3134287  34.6798998
  45.9876999  71.1902938  34.6332463  45.9543278  69.9140458  35.4350272
  67.6661968   9.9635581  37.6321729  67.6873324   8.9812962  37.6041364
  68.5263253  10.0856733  38.1529675   6.8075524   9.4578999  37.5202480
   7.3820006   8.7228581  37.8775896   6.9111694  10.0380867  38.3238079
  57.7058736  76.4659170  25.2181011  58.0264784  76.7326387  26.1492728
  57.9282898  77.2959905  24.7558073  13.2286251  14.2146157  52.6704491
  12.4504084  14.7364194  52.9991520  13.6577105  14.9077937  52.1760536
  48.3137706  73.1207346  36.2482671  48.8920173  72.4069995  36.4813611
  48.2385089  73.0255008  35.2890701   2.9903390  18.1415575  25.9334176
   2.7627627  17.5058464  26.6601104   3.9472995  18.2720144  26.1150629
   1.2056237  13.6364262  33.3783295   1.0341793  13.4191250  32.4543854
   0.9605492  12.8750714  33.9082067   8.6007551   7.3729286  38.7688562
   8.3020274   7.6341524  39.6838835   9.5391860   7.3349247  38.9197627
  61.9358395  73.5612808  51.7867748  62.8525505  73.3950548  52.1179088
  61.9289956  72.8347589  51.1258865  56.5712990  76.3117951  43.9355922
  56.1159806  77.1646620  43.9513981  56.4197161  76.0065235  44.8804936
   8.9255234  11.0366307  36.5947004   8.2166767  10.6168581  37.1179234
   8.9895323  11.8753771  37.1048920  44.5205536  75.2909234  54.1277081
  44.2943767  75.8580335  53.3381108  43.7652386  74.7180078  54.1454350
  13.7544533   2.6047977  33.1195250  13.7871321   3.5568586  33.0323614
  12.8086074   2.3816215  32.7222894   4.7250956  13.1156418  25.8334167
   5.6666015  12.9637057  26.1891840   4.4392649  12.1539544  25.8222445
  51.9474658  75.3776573  39.1811772  51.6442708  75.8911610  38.3575895
  52.6892363  74.9309188  38.7304710  46.9588000  82.6881716  50.0332696
  47.7368605  83.3305667  50.1026355  46.7496611  82.6272456  50.9806610
  32.4349316  16.4298538  47.1476691  32.4059893  16.8871175  47.9984730
  31.5204254  16.0857506  47.0858162   8.2519428   8.3627926  41.1556830
   8.2755706   7.9765973  42.0535434   8.9945594   9.0068498  41.1977171
  56.9672390  73.9706216  37.7690446  57.3337815  73.4620269  37.0413936
  57.4059607  73.5017461  38.4968587  15.0051370   3.3754286  45.4808060
  14.9193917   2.4306549  45.2026160  15.3073178   3.7564366  44.6088854
  52.1071525  83.9676020  38.0495296  51.6602924  84.5026470  37.4001722
  51.7679245  83.0840113  37.8223676  51.3876897  84.3390555  49.2963497
  52.1657929  84.8350028  49.0576811  51.8074761  83.4881243  49.6252740
  72.0500347  16.1822488  31.6416931  72.5295529  15.8272254  32.3730239
  71.1930162  15.7150023  31.7008353   0.2081939  12.7233464  46.1851552
  -0.5042215  13.3786880  46.2585261  -0.1970940  12.1301107  45.4899875
  49.2375398  73.9784733  31.9112865  49.0518308  74.8418611  31.5039564
  48.5085646  73.4582405  31.4860928  74.6349713  10.5038663  46.5828593
  74.8201553  10.8041475  47.4911139  75.3016125   9.8008768  46.5412497
  53.2978686  77.5237947  35.8048525  52.9107601  77.5752906  34.8714994
  54.1628474  77.1373284  35.5300265  42.7955431  82.7298435  54.6965866
  43.4813617  83.1823397  55.2146085  42.3630774  82.1811788  55.3938554
   9.2838900   9.8078576  44.0269800  10.1455852  10.0933712  43.5743265
   8.7655340  10.6046658  43.9894296  75.2700863  11.5493064  39.4256053
  75.9767620  10.9501396  39.7493713  75.2557455  12.2317785  40.1122181
  59.7900708  67.9505389  33.4456560  59.6761944  68.1976095  34.3802357
  59.9707370  67.0268931  33.4822531  58.3393016  78.7447852  27.3040921
  57.8439788  79.5342352  27.6714390  58.2378654  78.1466499  28.0739098
  60.4992544  72.7465660  46.0571601  61.4140202  72.4310909  46.1728669
  60.6955364  73.5675685  45.5500739  68.6460263  59.2788640  38.9874009
  67.9438939  58.8586127  39.5764862  68.0883075  60.0135042  38.6287403
  51.4132506  62.9553236  16.9810160  50.8897691  62.1681375  17.2772974
  51.9922437  62.5732636  16.2753680  57.6481002  72.7856937  35.1192334
  57.2029395  73.4141988  34.5751312  58.2000481  72.2903312  34.4424759
  57.7176971  77.6739786  40.3720317  58.4764395  78.2178126  40.2401901
  57.5544157  77.2763411  39.4989964   5.1569049  10.1214034  28.2905468
   5.2779855   9.2391887  27.8478649   4.3987113  10.4628673  27.6767932
  47.5399199  75.6358407  39.4190825  48.1897454  75.6900948  40.1968163
  47.1005755  74.7561821  39.7161700  77.5141427  18.8141707  27.0743138
  76.8242765  19.4986150  26.9918216  78.3088213  19.3252931  27.3662460
  40.8812057  74.2351331  42.6133828  40.7662988  73.4181736  43.2081499
  41.5233874  74.7319698  43.1106872  56.1812501  76.7745911  35.2832969
  56.8112734  76.8704867  35.9636102  56.4078928  75.9284416  34.8846032
  18.1991533  19.2548490  35.6253558  18.0598656  18.9597032  34.6349193
  18.1881846  18.3545637  36.0478633  53.4631135  69.2721776  37.7398063
  54.2792640  69.8320718  37.5920677  53.7842566  68.5986321  38.3332808
   6.8978107  16.9523091  36.1721174   7.3820514  17.7595350  35.8262567
   7.4840915  16.8553019  37.0385967  79.0879420  11.7492358  34.7401223
  79.2583870  10.9674055  34.1837221  78.4783571  11.4022009  35.3901149
  51.9742342  74.5907359  43.6915810  52.7140039  74.0558090  44.0870900
  52.4952030  74.9266763  42.8710724  64.6208051  72.4967860  48.9654728
  65.1054728  73.3469511  48.9113139  64.8957712  72.2111020  49.8201693
  52.3051638  84.7338370  33.0478935  52.6219246  83.9839769  33.5530263
  53.0557848  84.8818688  32.4261959  55.1623317  71.6753904  29.1071958
  55.2716819  72.0390231  28.1672642  54.1868050  71.5733501  29.0821315
  47.8559736  78.8877250  26.7272911  48.6443280  79.4661359  26.5791149
  47.1731319  79.4185558  26.3365038  48.4896783  69.2780286  41.6595069
  49.0215848  69.8395141  40.9997515  49.2406741  69.1074672  42.2748774
  57.7810869  79.8389875  48.0055141  56.8970344  79.6633366  47.7097460
  57.8740683  79.1635384  48.7480415  47.3988732  81.6561973  33.6257506
  46.9207880  81.8124789  32.7943220  48.2957568  81.8773713  33.4138342
  69.3769088  15.5206131  46.5875017  69.0619854  15.3588770  45.6558463
  70.2133066  15.0750045  46.5475500  61.8360702  75.7205386  38.6995762
  62.0025122  74.8671500  39.2014943  60.8456969  75.6913502  38.7142075
  49.4931374  68.0975317  21.5631057  48.6299031  67.6138428  21.4395217
  49.4905028  68.5986562  20.7229584  60.4913893  78.7203071  43.7391696
  59.6029090  79.1909838  43.7437427  60.1182239  77.8105006  43.6023671
  55.1396527  78.9641467  33.9177419  55.7234532  78.1958782  34.1558213
  55.8252344  79.6808218  33.9725483  52.5914460  78.8209468  33.1124823
  53.5360640  79.0015538  33.4401998  52.7190695  78.9174440  32.1666832
  66.2881788  70.6309185  45.1197050  66.6917247  70.4345234  44.2229257
  67.0950361  70.8663270  45.6468558  50.3170211  72.0492613  49.1807902
  50.5163189  71.1050463  49.3308022  49.7324357  72.0045045  48.3873938
  53.3779705   7.4146015  50.3056027  53.0462592   7.5480548  49.3932805
  54.1738431   7.9821403  50.2539246  46.1414290  79.2293948  44.9699904
  45.4708592  79.8970937  44.7924189  46.4747757  79.1259520  44.0513369
  38.4694834  76.2450113  36.8929859  37.7788055  76.9468920  36.7170287
  38.1420574  75.5079334  36.3663805  62.3536786   6.7249059  30.0861462
  63.1032238   6.7515768  29.4237848  61.6349172   7.0156849  29.4392526
   9.6999300  13.1664811  38.0822995   9.4440413  13.5454750  38.9545917
  10.3937012  13.7588108  37.8285346  59.7339706  65.5859731  36.2948132
  59.5905994  66.5608198  36.2377851  59.7300874  65.3157789  35.3375667
  43.0446051  80.4813059  30.1313094  42.6072959  80.8671489  30.9183885
  42.5115611  79.6883920  29.9524515  45.9782436  72.0794812  37.4459904
  46.7294960  72.5805615  37.0894139  45.3613237  72.2674884  36.6880567
   5.5702503  17.7739568  25.9824402   6.2198554  17.1848123  25.5135605
   6.1001991  18.0754255  26.7759401  49.3357911  71.9453673  42.6447837
  48.3172247  71.9360840  42.6541775  49.4286146  71.9995119  41.6903708
  59.0204462  66.0169636  24.9047920  59.1650108  66.0571216  23.9726908
  58.4235584  65.2528628  25.0427674  59.9979868  79.6913982  35.7044081
  60.6879732  79.8434045  36.3870986  59.1912638  79.9119797  36.2225089
  52.1519805  85.6964905  29.1944165  52.7121369  85.7574396  28.4150068
  52.8048215  85.8473810  29.9113529   5.7742104   7.5140754  33.4204020
   5.4668917   8.4445496  33.4651773   6.7324181   7.6693170  33.5810584
   8.8970918  14.7041156  39.9390918   8.8960028  15.5898915  39.6220441
   9.1268675  14.8012933  40.8689753  10.2549256   9.4253454  34.7974670
   9.8706531   9.9015984  35.6059929  11.1644105   9.7082116  34.9096661
  58.6291370  73.5593367  40.3121075  57.8459133  73.0803190  40.7048170
  59.1011743  73.6871104  41.1726289  52.3553731  86.0715298  43.7949016
  53.1771700  85.5243585  43.5479273  51.7201085  85.3128210  43.6405793
  39.2107337  75.5265926  48.1850224  39.5437602  76.3129127  48.6935263
  38.5918335  76.0754137  47.6093590  47.8141611  82.4258016  44.8453993
  47.1166753  82.7355888  45.5158049  48.2631783  81.7406842  45.3440914
   5.4462614   8.8167415  43.1553954   4.6312700   8.2968135  43.0084581
   5.0215534   9.7010659  43.0498365  53.3742764  75.1517360  41.4643098
  52.8330919  75.2732240  40.6722515  54.0250912  75.9108118  41.3660718
  64.5640300   7.2849350  38.1843548  63.6651107   7.5992133  38.1899352
  64.4801007   6.3824842  38.4984312  58.8337668  61.4769702  40.5964640
  58.1462380  60.9136891  40.9030946  59.3007663  61.7652801  41.4213686
  62.9324401  71.2281123  33.8440882  63.2838760  70.2726398  33.8111095
  61.9839827  70.9957378  33.8273687  55.5945145  84.5038256  36.6690728
  55.4164414  84.6553225  37.6443331  56.2438132  85.2554788  36.5354161
  61.5580323  63.2373722  49.3219814  62.2971124  63.0062751  48.7209569
  61.1739173  63.9688690  48.8465438  31.1422525  49.9450789  85.8551117
  30.2992207  50.3132813  86.1149954  31.6662145  50.0904101  86.6890767
  64.2269884   6.5721680  28.3151264  63.9920066   5.9845029  27.5662207
  65.1853365   6.4776563  28.3003552  36.6702423  79.8803056  39.2700553
  37.5680529  79.6638159  39.0644680  36.3070225  78.9515390  39.2911038
  73.8591487  70.5505680  36.3358258  73.7181309  69.5475876  36.2899580
  73.8135072  70.6902855  35.3683830  58.3786705  78.8758249  23.7917567
  59.0513732  79.1299473  24.4334182  58.1997618  79.7715674  23.3835700
  56.3117418  70.4869295  47.7253962  55.9870378  71.4015639  47.6121256
  57.1089785  70.5234476  47.0791756  51.9567185  76.6780356  29.1097116
  52.6187109  76.6493447  28.3438608  52.4079258  77.4191303  29.6602728
  47.0490261  74.6456189  28.6742184  48.0053596  74.7077625  28.4833907
  46.6784958  75.0351996  27.8367350   4.7845157  10.1480300  33.5039202
   5.0654655  10.9389458  34.0482706   4.8068773  10.6075289  32.6210154
  11.0459391  16.7306077  59.1657369  11.4008187  17.5774943  58.8515334
  11.4354804  16.1452486  58.4286675  11.9117128   4.2564335  39.0949121
  11.8490752   3.2916620  38.9999660  11.5714387   4.3669721  40.0133825
  62.8187098  79.5245704  53.0488390  62.9692745  78.8683382  53.7611568
  62.1647550  79.1016763  52.5081337  71.1065411  13.2916223  48.0752667
  70.3852346  12.6295117  48.0057410  70.9366865  13.7224938  48.9318370
  51.8277195  78.7903234  37.6527620  52.2860383  78.2026072  37.0819553
  50.8832160  78.4825312  37.4790324  60.6643715  80.8246103  30.5121690
  60.5919291  80.3538942  31.4158576  61.6291879  80.5988275  30.3662172
   8.1681756  22.9577002  46.0926412   8.3803528  23.7632976  46.6476064
   7.6265845  23.4422564  45.4283997   8.5155251  15.7154411  26.4790802
   8.3063440  15.5023573  27.4531034   9.4140783  15.4506013  26.4284317
  55.8425865  83.5665642  34.0523259  56.4544415  84.2956933  33.6936040
  55.8655348  83.8983894  35.0226664  69.0010191  61.3994015  29.7989726
  68.9034334  62.3263026  29.8577657  69.8325908  61.2939848  29.3068901
  15.1468350  19.0375647  19.7410452  15.8651188  18.6541883  20.2136043
  15.3999744  18.8853301  18.8069434  21.7861697   3.7516120  30.5132260
  22.4629616   3.3044009  29.9683291  21.1543738   4.0102802  29.8018668
  33.8874207  49.9244500  80.3771756  33.4826230  49.0755620  80.1864502
  33.1744655  50.3931153  80.8404902  36.0743160  43.9366026  84.7249165
  35.6531973  43.2149323  85.2524462  36.7442807  44.2454687  85.3352162
  14.4657584  13.2124863  18.7580103  15.2806745  13.6715018  18.4836150
  13.9454045  13.9107687  19.1873128  49.9010019  24.7990728  82.7943273
  49.2725198  24.1618294  82.2950641  50.7137603  24.5705397  82.2080120
  37.9609917  45.8794686  79.9810247  38.0359470  45.2588994  80.7382510
  37.7826593  46.7313122  80.4762452  27.5890117  18.1962368  24.4869845
  26.7821462  18.2555364  25.0340187  28.2456408  17.9470392  25.1701039
  20.6514111   1.6188567  22.6673853  20.8296797   0.7726012  22.1828965
  20.5229737   2.2473438  21.9367419  41.4252998  43.9203070  76.1568023
  41.9642352  43.3397022  76.7171633  41.1751765  44.5549227  76.8028114
  54.5748436  30.3114231  86.6899265  53.9568328  29.6737805  86.8336622
  55.2569515  29.8723590  86.0800355  14.6830347   7.7966647  42.2583401
  13.9839734   8.1792187  42.8696755  15.4842830   8.2005413  42.5941653
  21.8801253   6.5421474  31.5167515  21.9482378   5.7186350  30.9608651
  21.3615679   6.1231783  32.2763644  14.4219218   6.4825531  24.2391596
  13.8556379   7.2531282  24.1899964  14.6004538   6.4728837  25.2358921
  48.6520191  55.3861863  75.5390770  48.8359623  55.6513542  76.4770133
  48.1613364  54.5651653  75.7507970  71.4664095  72.7992375  40.3457462
  71.8600013  72.7092257  39.4143005  71.8803968  73.6103527  40.5932346
  44.1147842  43.5822439  77.9378298  43.8613970  42.7414337  77.5264397
  45.0633847  43.4968492  77.9904774  47.3116721  36.1524080  84.5755883
  46.4426221  36.1093500  84.1371709  47.4820150  37.1059988  84.5458257
  19.7175086  14.1768068  23.0340875  20.3296375  14.1324736  23.8026955
  18.8770383  13.9474047  23.4562922  14.4200124  17.4298133  26.2369569
  15.4547864  17.5435405  26.1239852  14.1937222  18.2920474  25.7752679
  31.2626867   2.3165082  35.2928166  32.2092497   2.0601029  35.5280112
  31.5045336   2.7226324  34.3839748  60.8940592  76.7749704  29.5121922
  60.1755797  76.3079480  28.9901857  61.4623306  77.0501748  28.7799124
  49.5643189  84.9075349  28.2160433  49.5696022  84.1985116  28.9189526
  50.3861505  85.3957882  28.4619227  11.1478453   6.1424584  32.9763573
  12.0156295   5.7264432  33.0681580  10.9122641   6.2678517  33.8871877
  18.1718473  10.4564806  19.0162983  17.4330919   9.8129712  18.9442180
  18.9527828   9.8805834  18.7396036  15.6906101   0.8088806  34.0755586
  15.0248857   1.4214343  33.7976858  15.2438195  -0.0250875  33.9074937
  33.2957079  45.8668053  86.3959842  33.2104139  45.8461220  85.4569148
  34.0894299  46.3875784  86.5586639  36.0416449  41.4827561  81.8037820
  35.8129667  41.3108304  82.7384409  36.7802140  42.1174041  81.9624139
  41.4762666  34.2817838  83.6536314  41.5786962  35.2321335  83.7435668
  40.6585932  34.1716870  83.1042749  22.8850971  15.5947534  14.3995074
  23.0107236  15.9767922  15.3046223  22.0317401  15.1156264  14.5648332
  40.4027957  49.6336764  81.4791071  40.5375619  49.7588434  82.4764889
  40.4873021  50.5791181  81.2259792  52.6791047  54.5095820  70.0658541
  53.0863345  55.3843547  69.8091577  51.9057825  54.5247268  69.4777875
  53.0410709  29.3183539  79.9175206  52.3595320  28.9203951  79.3313197
  53.8382471  28.8522323  79.5923320  21.3115627   8.9884951  31.1620001
  21.6081971   8.8056611  30.2446972  21.2678603   8.0608479  31.4883502
  15.7343115  13.8032913  22.3686073  14.9922003  13.7264382  23.0218190
  15.3531534  14.4624157  21.7315145   0.1720724  15.6657599  21.9391540
  -0.0791487  16.6507373  21.8797129   0.2509228  15.5854595  22.8860443
  66.3756901  74.1156362  25.7345111  66.4027068  74.2996178  24.7697933
  66.1510631  75.0557634  25.9778307  24.2943200  14.9336330  20.2681242
  24.1473163  14.7369544  19.3013867  23.3809763  14.8721868  20.6101491
  22.5564108   7.1540002  28.2072280  22.1702197   6.4170425  27.6647492
  23.2973783   6.6602133  28.5967576  31.5153021  40.2123809  81.3169750
  30.7321850  40.4766579  80.7967173  32.1590689  40.8365856  80.9732044
  15.0847549  22.2662043  40.5789605  16.0268362  22.2924769  40.4567185
  14.7290165  21.8745153  39.8145771  25.1904429   4.3564197  24.8739458
  25.8335095   4.3570181  25.5933657  24.8778737   5.2800580  24.9988299
  23.0841439  13.0367134  30.8729187  23.9100714  12.5343530  30.5599810
  23.1186451  13.7734393  30.1956811   7.0986256  14.1373672  35.6781036
   6.9120250  15.1467859  35.6446861   6.9590280  13.9848293  36.6378452
  79.2157650  12.2522395  24.8691137  78.4010399  11.6956365  24.6912755
  79.5625643  12.2189240  23.9418650  44.2138548  51.7684168  75.2723489
  43.8207790  52.5725872  75.6034462  43.7242562  51.0582647  75.7511617
  62.7551548  75.0047067  24.5455642  63.0303661  74.1606465  24.0511923
  62.5209578  75.5168918  23.7369418  17.4562424  10.1627617  30.8817483
  16.8400043  10.5451457  30.2220885  18.1100150   9.7514366  30.2610437
  14.1666164  21.5601155  20.3762888  13.4879344  21.5293909  19.6383069
  14.4708791  20.6128487  20.2952801  17.8939474  14.9031858  26.8241174
  18.3496564  14.0652567  27.0709181  17.7174284  14.7412350  25.8780400
  17.8938632   2.0608277  22.8722084  18.8214197   1.9400375  23.1377422
  17.9046849   1.6769407  21.9963677  54.8754158  83.7149731  25.4746090
  55.4071334  82.8999701  25.2213003  54.6062986  83.9104844  24.5205823
  38.2841534  -0.4915825  26.2627234  39.0824679   0.0045079  26.3388218
  38.1161219  -0.7861728  27.1887066  67.9055177  73.1259580  32.8295516
  66.9361199  73.1962662  32.6858170  68.2839502  73.6772280  32.1587229
  46.8796375  48.2094072  72.5156343  46.5501349  47.3160881  72.6893463
  47.3349890  48.4442973  73.3294382  29.3157637   3.9806513  23.9709564
  29.1063649   3.1547521  24.4549974  30.0441608   3.6613578  23.3958562
  16.4351434   3.7192038  31.2968872  15.8736563   3.2549648  30.7145058
  16.4099840   4.6422437  31.1015795  37.0221522  48.8874786  73.9086574
  36.3919618  48.1482595  73.5623805  37.1460622  48.4469149  74.7917054
  67.1099490  70.5859926  21.0103532  67.5888449  71.1269030  20.3151140
  67.3589827  69.6914613  20.6671969  15.6040255  15.0657951  28.7786735
  15.5419704  15.9790206  28.5738972  15.8706302  15.0274732  29.7123870
  39.9039798  45.6772280  84.2776453  40.2241707  46.5767236  84.6118706
  40.1621300  45.7993542  83.2859201  17.8471432   0.1281625  29.4322116
  17.1643033   0.5557208  28.8159690  17.4083518   0.1165124  30.2892550
   8.2098403  12.7327169  31.1535140   8.4417534  13.0453340  32.0240108
   8.7721315  11.9398296  31.0232904  60.0598900  73.4278562  22.5462838
  60.0281955  72.7544689  23.3018228  59.1357559  73.7208824  22.5078720
  10.9293860  21.5960921  33.9108694  10.1602823  21.2511303  33.3609237
  11.5377140  21.7895854  33.1469056  14.2502259   6.8791991  35.9067141
  14.1372391   6.4470086  36.7495885  13.7207471   7.6872976  36.0278251
  14.4564173  14.3070828  33.9874513  14.7338880  13.4862874  34.4722109
  14.0868576  14.7903046  34.7890586  26.2703834  17.3543049  31.8694400
  26.8793111  17.3097839  32.6384352  25.9713241  18.2810818  31.8942015
  19.3149545  16.1936012  17.2018372  19.2385062  17.1941215  17.2646133
  20.0817139  16.0877183  16.6456582  11.0289760  10.6914126  26.3419358
  11.5258174  10.8320613  27.2169400  10.2376912  10.3020016  26.7520339
  33.3372480  12.1475651  25.5499284  34.2190476  11.7739378  25.7730153
  32.9884505  12.2639571  26.4815579  22.8832802  10.4045611  25.5936557
  23.2011386   9.9717608  24.7301689  23.6266771  11.0480601  25.6977830
  20.4218011   6.0781360  20.8568288  20.1720139   6.4536908  19.9590203
  21.3544858   6.2902370  20.8516340  49.9132829  43.5933317  78.6541371
  50.6832220  44.1556312  78.5907782  49.3826026  44.0537485  79.3596702
  12.4494036   7.8068537  29.5425786  12.4546620   8.0589846  30.4936189
  11.9589202   8.5984366  29.1914955  10.3990106   9.2257908  22.0526107
  10.5952599   9.9539228  21.4797494  10.9666772   8.4895341  21.7946589
   6.2182326  11.9266756  23.3346664   7.1711618  11.7117058  23.2555900
   6.3857597  12.7333035  23.9538282   9.1803835  13.3656894  22.3111656
   9.5874969  12.7298623  22.9739114   9.6646641  14.1736322  22.5897402
  27.4794257  18.0999639  34.0550384  27.5133198  19.0647858  33.9410374
  27.9845774  18.0816780  34.9267127  59.1609291  70.9621154  36.6401563
  58.5018957  71.6186758  36.2856435  59.9602143  71.5624594  36.6078767
  48.7726341  41.7727999  77.1299051  49.1339112  42.3738935  77.8102233
  47.8817754  41.5395881  77.5224975  25.9720821   6.9119963  38.9410991
  26.6273815   7.5882613  39.2531940  26.1924391   6.2298947  39.6578694
  33.8832976   3.6109034  19.6472505  34.2850789   4.2821134  20.2640281
  33.8813491   4.1015560  18.7826552  64.3912548  73.0702874  36.9402018
  64.3821622  73.8747959  36.3935975  65.1297972  72.5488246  36.5323011
  16.6954860   5.8663553  22.7585206  16.0387738   6.3670095  23.2065077
  16.5618561   4.9315161  23.0461889  27.4301026  15.7677964  18.1943741
  27.1870678  15.5283759  19.1122026  26.6073685  16.2074064  17.9211155
  46.6421019  44.2711688  77.8935069  47.2875674  44.3300570  77.1480921
  47.2976699  44.3796272  78.6340214  75.2458393  66.7916412  23.6774373
  74.7683373  67.6993645  23.7680643  74.8072993  66.5114267  22.8379631
  24.3337952   8.8234747  29.5834864  24.8406335   8.7015355  28.7291072
  23.8212843   7.9980707  29.6346838  30.2344876   7.8607262  32.7280130
  30.5822508   7.4490114  33.5579668  29.3128655   7.5350604  32.7345863
  27.7327368  11.1600877  41.7082655  27.2752850  11.5417486  42.5101426
  27.3607445  11.7283476  41.0296245  63.0263632  74.5427719  43.8117924
  62.4696238  73.7043614  43.6552659  63.7937791  74.1300883  44.2195601
  12.4569311  11.2231484  24.0009708  11.8263274  11.5287417  23.3526638
  11.8933738  11.0050920  24.7866063  67.0558529  71.3611113  25.2168826
  66.4831929  70.6639128  24.8728176  66.4670142  72.1352422  25.2214275
  29.2975611   0.1613200  28.3328256  29.6292617  -0.2649385  27.5281555
  28.3644307   0.3454670  28.0374017   5.5533138  11.0780631  30.8322180
   5.5042496  10.7451976  29.8755270   6.4097386  11.4779026  30.7626148
  48.8301856  25.8553175  72.8891356  48.5709767  26.6484430  72.3757776
  49.7865085  25.8232752  72.5366930  36.4907374  26.2581155  79.1291836
  36.7074852  26.7501813  78.3079892  35.6945783  26.7405426  79.4156486
   8.7750846  66.8903870  18.5917325   8.6574334  67.6346392  19.2207630
   9.3700918  66.3359864  19.1348295  12.0524676  10.6980278  29.0013954
  11.1508775  10.7457166  29.3374766  12.5983866  11.0348573  29.7144901
  31.2720861  11.5113406  13.7633559  30.7033389  12.2885041  13.5707078
  31.7340422  11.8438368  14.6183185  18.1323325  11.7933921  35.2326675
  18.5237186  12.4819236  34.5258602  18.5816779  11.0027126  34.8640145
  15.1804742  17.9906789  37.1979604  14.9323157  17.7973747  36.2604419
  16.0957170  17.6051913  37.2743176  57.5863692  75.4286893  31.2567518
  57.0114924  75.2050447  30.4705918  57.6905398  76.3807228  31.1671111
  18.2365266   9.8218563  26.3176743  17.5248553  10.3068863  25.9385102
  18.2106047   8.9977259  25.8244791  30.8103656  16.1257548  33.9202780
  31.3928605  15.3361781  34.1365124  29.9996233  15.8345567  34.4701880
  19.4828379  16.4743801  28.3651487  18.8832814  17.1174699  28.8333974
  18.7792102  15.9943116  27.7663028  40.0525844  12.9761329  40.5725966
  40.5630859  12.9579199  39.7370696  39.5520675  13.8243483  40.4793375
  11.4389478  19.4552660  35.6422330  10.5393298  19.0294213  35.5085766
  11.5139476  19.9928008  34.8749736  22.9205680  16.9014766  16.6880735
  23.2830489  16.3521708  17.4023069  22.7000051  17.7159366  17.1583266
   7.9789545  34.3232534  25.4057772   7.2345274  34.0489911  25.9375535
   7.5693066  34.4931807  24.5721171  17.2464724  29.2451797  30.8174917
  17.5724106  28.8727697  31.6409573  16.4562449  29.7900293  31.2087066
  25.1693468  23.3107863  30.1752401  25.4040211  24.0722993  29.6086986
  25.9454924  22.7609856  30.2357680  16.4612404  18.2655255  17.4475062
  16.2803616  18.8957377  16.7248556  17.4605838  18.3655314  17.4177754
  26.0578788  19.6406203  26.8368872  25.7828617  19.6926648  27.7841951
  27.0261981  19.8462205  27.0118387  58.8353634  61.9293663  66.3518263
  59.1948917  62.4277792  65.5905588  59.6367353  61.6988659  66.8678938
  29.5976940  17.8995780  26.3213397  30.5134258  18.1882518  26.4476755
  29.7023758  16.9899416  26.7209629  49.0904147  50.2940079  76.2810267
  48.7224183  50.1780901  75.4134674  49.9266224  50.7245506  76.0856946
  20.6707842  12.3174392  25.4086050  20.4145884  11.8536147  24.5387396
  21.3939503  11.6350031  25.6368595  35.0012383   4.7989810  28.6980575
  34.7027521   4.3484066  27.8540098  34.7382006   4.0013271  29.2713176
  23.1271530  15.8246978  24.4344248  23.5643380  16.6544203  24.7932667
  22.8971389  15.4232243  25.2843639  32.9388444  15.3934550  30.5854145
  32.2058733  14.9982693  30.1312206  32.4192579  15.8712873  31.2726573
  22.6820358  24.4586543  34.4124646  21.6756163  24.4018246  34.4761156
  22.7259793  24.4914178  33.4149078  32.5473811  21.7730829  22.0124892
  31.6357422  21.8224862  22.2883945  32.8821731  21.0289043  22.5513734
  49.6295060  46.5616309  73.1544437  50.1372136  47.0489305  72.4303197
  49.6129960  45.6719500  72.7586404  22.2015677  14.5917531  32.7775162
  22.2618069  13.8749590  32.0887739  22.8926205  15.2057459  32.4411167
  24.0348880  13.0259001  23.4824272  23.4360268  13.0877234  22.7325169
  23.7613802  13.8463084  23.9690832  23.0248597  20.6682966  32.8801332
  22.8450712  19.9757976  32.2263718  23.1373489  20.1362328  33.6712184
  32.0324780   7.3402136  28.4056403  31.7724650   7.0840781  29.3240533
  31.5722709   6.6664770  27.9420703  40.2612396  26.5472175  19.3626483
  40.8832309  26.7398265  20.0765418  39.4095336  26.6719856  19.7512731
  25.8641139  26.6648044  39.3143670  26.5166500  27.3993456  39.3688315
  26.4231576  25.8947999  39.3687421  35.5142956  17.0210572  30.8190144
  35.3957018  17.4633263  29.9701344  34.7348506  16.4432671  30.8969748
  22.5111431  28.4827453  36.4997913  23.3075356  28.9972675  36.3286558
  22.7298790  28.0406658  37.3049405  31.6272806  17.3087400  40.2070832
  32.5538631  17.5761896  40.0455682  31.2286245  18.2507342  40.3764157
  34.5267460  12.3117959  22.4282222  33.5957093  12.3080990  22.6678246
  34.6907140  11.3632409  22.2049615  21.5037974  25.2752846  28.8890932
  20.5707636  25.5616359  28.6911412  21.8751923  25.6342486  28.0522403
  36.4448333  20.1819875  28.5500887  35.9886588  20.4361860  29.3858222
  35.9224638  19.4150534  28.2869494  26.6736266  21.3666147  21.1021986
  26.1855645  21.0790375  20.2674267  27.3355768  20.6161330  21.0970631
  15.5309807  11.3269716  28.9882246  15.1571740  11.8268703  29.7820718
  15.8136426  12.1125380  28.4578840  24.6020265  12.4695733  26.4864126
  24.6052992  13.4701366  26.4834154  23.8914165  12.3530526  27.0726039
  30.2701346  12.4631598  19.1116541  29.3050873  12.3914213  19.3122173
  30.5789803  11.6398943  19.5259788  12.7178561  19.7069998  31.3271021
  13.0036832  20.5599005  31.6746089  13.5967975  19.2445798  31.3175100
  13.9473217  13.5886935  24.3095047  14.1828313  13.5792393  25.2825705
  13.2358922  12.8774212  24.2917879  40.6997542  19.7398707  21.9958289
  41.0188303  19.3377344  21.1559995  39.7890345  19.3644592  22.0251185
   9.4022325  18.1072377  21.8009321   9.2488715  18.9775790  22.1641774
  10.0151987  17.7021009  22.4195373  33.1900846  19.8527741  36.9761800
  32.3511574  19.3642944  36.9908341  33.7868513  19.2031755  37.3977344
  19.8221569  10.9119932  23.4228473  20.4676410  10.5650575  22.6760540
  19.0555953  10.4145085  23.0971363  35.8621407  25.7840296  27.4520234
  35.2328361  25.9455472  26.7317936  36.5866619  26.3957660  27.2542293
  19.2155131  18.9663271  17.0520190  19.4089595  19.5244950  17.8865847
  19.5192391  19.5864061  16.3943985  19.3523226   5.9812883  36.9421113
  18.5810486   6.2804525  36.3706391  19.7810211   5.3403159  36.3760923
   6.9475155  24.2064295  27.8736310   7.4664328  23.7457487  27.1807346
   7.1921115  23.7098181  28.6593457  26.1663523  25.5286997  28.7105525
  26.6838830  26.3702763  28.7668090  25.3453119  25.8865962  28.2621411
  22.5770038  18.8622668  30.9408044  21.6560742  18.8401388  31.2877628
  22.8306510  17.9082268  31.1415219  18.2224136  13.0888847  37.5212750
  19.1293572  12.7481717  37.5353026  17.8273821  12.5341378  36.7925520
  18.1133333  22.6775777  40.8892977  18.3376474  23.6204520  40.7346326
  18.8917981  22.1964167  40.6461675  17.4655283  28.7436823  26.9249647
  18.1341874  29.0228518  27.5797935  16.8386607  28.3566680  27.4951042
  24.7200825  29.8112059  36.2558415  24.8966257  29.8405990  37.2117172
  25.6176924  29.9226725  35.8765831  28.7364330  31.8452290  32.9533676
  29.1869199  31.6356181  33.7966893  28.6169187  30.9955394  32.5673780
  25.2420045   1.1487237  42.4490667  25.8218833   1.8260555  42.1165669
  24.3824225   1.5540397  42.6656688   1.1567629  13.1221467  30.4835116
   2.0404348  13.4214144  30.2656707   0.6019232  13.4969406  29.7836938
  46.7108590  46.1106963  74.4562259  46.6817703  45.2159964  74.0664979
  47.4999060  45.9812669  75.0115491  33.6835693  16.3072174  16.6118725
  34.5245312  16.3215185  16.1249037  33.9456919  15.9683502  17.4635083
  29.2976844  14.8877653  31.6410766  28.8804347  14.2235160  32.1939746
  29.9421891  15.3029062  32.2557476  32.5314380  14.0750045  34.5481093
  33.5203846  14.1662851  34.3901420  32.3712931  13.2384160  34.1012667
  21.1921125  29.4721615  25.8398072  21.3938782  29.7298083  24.9467734
  20.3535688  28.9564029  25.7179125  31.3829810  12.2252678  16.6652854
  31.4762677  12.1015277  17.6072294  30.5420614  12.7517366  16.5776876
  26.4718890  23.2805086  35.2759089  27.0035312  23.4900860  34.4805181
  27.1533547  23.5463594  35.9795607  30.7818681  26.8919872  28.4504438
  31.2280772  25.9901637  28.4697248  30.1113528  26.7062875  27.7422063
  21.2639190  16.4706349  34.7485931  20.5132412  16.6670534  34.1613023
  21.7393289  15.8805637  34.0750025  29.7298444  14.3059285  13.5928597
  28.9361681  14.3592928  14.2318311  29.1949960  13.9809813  12.8005532
  26.7261186  10.8973337  16.6406153  26.7627091  10.2366984  15.9032503
  26.3060561  11.6502627  16.1695583  30.3096790  15.2889474  19.0331299
  29.3712169  15.2556029  18.7652167  30.4986615  14.3242176  19.0405298
  55.4126977  50.9988230  72.7201628  54.8059307  51.7947275  72.6136592
  56.2268945  51.3986299  72.8274181  31.3519973  17.4448979  17.5859278
  31.1550763  16.7702180  18.2353877  32.1907170  17.1015769  17.1787936
  33.6706898  11.9623217  18.8759630  33.0406176  11.3435518  19.3936393
  34.4546359  11.4595631  18.9363334  28.7660407  14.8519646  23.1006910
  28.2357420  14.2761383  22.4765372  28.7845316  15.6937378  22.5529958
  14.0561609  20.0535885  25.5093593  14.0431835  20.6794821  24.7938362
  14.6288120  20.5009468  26.1864848  25.9862813  17.4353848  12.2931392
  26.9213854  17.2911023  12.0651613  26.1116151  18.1296649  12.9920626
  26.8931055  14.2691161  21.3104636  25.9436330  14.3683685  21.0811053
  27.1296177  13.5365477  20.6964044  28.2569986  24.8643931  22.1996816
  27.3976254  24.3791400  22.0249012  27.8740326  25.6914922  22.6188593
  20.4538283  12.9184719  19.3959273  19.7825479  13.5645029  19.1558244
  19.8864725  12.1073224  19.4591685  15.2890469  18.5787006  14.7566285
  14.4918428  18.0764510  14.5281807  16.0211534  18.1099558  14.4432339
  17.7345421  18.1518306  33.0932778  17.8201329  17.1224351  33.1100605
  16.7722083  18.1686369  32.7280194  30.0358042  27.1581771   7.5221270
  29.0399638  27.3286881   7.5502161  30.3740405  28.0282670   7.4429957
  22.2636167  25.9312421  25.2845440  22.0816774  24.9392597  25.3782759
  21.3279758  26.2298221  25.1746531  25.0093192  18.9928966  45.5663771
  25.5209108  18.7904981  44.7094187  25.6348172  18.6675213  46.2098947
  33.1595345  27.0175000  34.7136766  32.6885133  27.0243804  35.6094639
  33.9457172  27.6146035  34.9746187  29.6287661  24.3662978  30.1873586
  29.4581261  25.3521237  30.1836085  30.4978004  24.3335849  29.6903662
  16.1903343  11.4167901  25.2842765  15.7944813  11.0192418  24.4729413
  15.5464300  12.1477031  25.4586525  22.8256130  27.0093173  20.9188877
  23.6312354  27.4899319  20.7605207  22.2617090  27.2634821  20.1862792
  24.7970236  19.4946423  29.2333246  25.3161528  19.6504218  30.0625198
  23.9782211  19.2013237  29.6644335  30.0710818  21.1782588  36.2784744
  30.7894752  21.7578831  36.4872592  30.0261994  21.1012157  35.3597097
  13.2743254  16.9441677  19.3224094  13.8207927  17.6860779  19.4557852
  12.6189280  17.3292289  18.6589772  23.0905511  10.0990799  17.8353284
  22.4288905   9.4187296  17.9462317  22.5919179  10.8857133  17.6585262
  22.8500508  16.6753562  41.8098883  22.6113905  17.4215677  42.4808082
  23.5389092  16.2388516  42.4534874  35.3139834  22.2712013  27.4376639
  34.8269430  22.0063245  26.6213953  35.6946190  21.3762122  27.6767056
  29.0290272  14.0733871  41.7460936  28.4056898  14.6299983  41.2538438
  28.7208770  13.1875752  41.4426507  21.0483433  25.1057398  37.3566836
  20.9218391  24.4204829  36.6370496  21.9068456  24.7291244  37.7043960
  23.2972401  32.6522826  39.8872416  24.0432398  33.2065659  39.4490500
  23.5875619  31.7565000  39.5910165  21.2260240  23.4380516  26.1823001
  21.8357192  22.8873058  26.6399370  20.8423088  22.7484745  25.4974421
  22.8152028  33.3558438  16.0204221  21.9991423  33.9373105  15.8152379
  23.1787487  33.9257404  16.7547123  28.5770794  21.1782677  39.3506194
  28.9817055  21.1433281  38.4931817  29.1683585  20.5532369  39.8261202
  22.1351578  19.8418752  24.8399327  22.6547968  19.1679118  25.3108493
  21.2808028  19.7190617  25.4071082  49.3606075  43.6258004  72.0941540
  48.5876269  43.5530722  71.5253195  49.1570182  43.0048990  72.8091846
  12.7654430  30.2305992  28.3529808  13.2869558  29.9551932  27.5879892
  13.3688945  30.9013063  28.7316377  23.8097123  16.5021083  31.3142894
  23.9136445  16.2605779  30.3414915  24.7555800  16.6837882  31.5188766
  17.5798916  13.7106782  24.4343867  17.2994016  12.9677438  24.9506524
  17.0004873  13.6164972  23.6377855  15.4013435  26.4523164  31.4563980
  14.7233927  26.9466984  32.0095624  15.3785575  25.6106753  31.8765140
  56.4309459  39.6616673  67.8456464  57.1654613  39.0361431  68.0801124
  56.9964093  40.3768136  67.4822612  38.2126531  17.6257458  25.6851382
  37.6541154  16.8977770  25.4124620  38.2284859  17.5900303  26.6425504
  36.8278331  60.3540207  77.0275209  37.6427730  60.5783638  76.4947936
  36.6488585  59.5023738  76.5606819  13.6090792   5.5412545  33.5062245
  13.7605919   5.9720643  34.3543426  14.1206037   6.1346192  32.9296923
  18.3788986  32.4986758  32.4423824  18.1896174  32.3850510  33.4264913
  19.3179972  32.4039078  32.3618170  37.8210095  27.8052357  11.2467145
  37.1147561  28.3388017  11.6346400  38.1501008  28.4582194  10.5086820
  30.1642742  11.3435321  29.4382539  30.8671796  10.8444297  28.9856515
  30.3781303  11.0367803  30.3591873  28.0044746  12.6433591  32.2243235
  28.7970008  12.2037104  32.6126684  27.7993464  12.0047993  31.5464301
  27.8374936  24.5831114  39.9861347  28.5737531  23.9435249  40.0772915
  27.5405923  24.6043564  40.9442023  25.6714770  20.1236331  31.9576125
  26.2846645  20.5138009  32.5890012  24.8535702  20.5933233  32.1895285
  22.6534476  13.6775419  35.7193317  22.1345789  13.9385910  34.9771140
  23.5449488  13.6267748  35.3893551  21.1027245  12.8880481  38.0538995
  21.4117123  11.9700343  38.0723159  21.4406518  13.2335564  37.2075077
  19.9758296  24.7697301  34.3041746  19.2046391  24.7122899  34.8845183
  19.7369246  24.1898059  33.5913769  29.2744427  15.6229061  27.6886155
  28.9083306  16.1033667  28.5102793  29.8545092  15.0159139  28.1129862
  35.1359440  19.7607569  32.9631936  36.0681189  19.2448411  33.0505319
  35.4277717  20.4764274  33.5802809  38.2408604  21.3121247  26.7551193
  39.0482064  21.2458624  27.3800390  37.6120965  20.9210070  27.3742638
  27.8031757  28.8937697  18.9845880  27.1793421  28.8073412  18.2233030
  27.9728348  27.9684587  19.2051453  28.1298082  23.6424030  18.3733789
  28.8891700  23.1961736  18.7150382  28.4211354  23.9702364  17.4972819
  24.3782037  22.2540867  25.4606292  25.3394721  22.1867768  25.7816157
  23.9991241  21.7192429  26.1717226  18.3507036  29.3963121  36.2876561
  18.9539143  28.7353300  35.9716253  18.7623817  29.4883325  37.2247891
  19.2188447  29.8780074  22.4255739  20.1678521  30.1051629  22.6134768
  19.0377761  29.3231128  23.2040568  38.2333430  53.8438565  71.3692410
  37.5186545  53.7014491  70.7340803  38.7979244  54.4868178  70.9383585
  27.0702311  26.8397506  26.1714046  27.4681310  27.1754491  27.0163542
  26.1711941  26.7152822  26.4516293  16.3851060   0.6722209  27.0688715
  15.6685910   0.9043918  26.4462441  16.3533022  -0.3291235  27.0064411
   8.8291812  12.9088359  34.1330385   8.2743951  13.5298896  34.7074583
   8.7626146  12.1053313  34.6821544  33.6816351  21.9553983  25.2240011
  33.4632893  22.8147805  24.7977525  33.3207281  21.3417714  24.5890160
  33.9123579  59.5225652  71.5713078  33.6015392  59.9711603  70.7604168
  33.8901560  58.5960137  71.3025866  30.3286963  24.5299755  23.6360425
  29.7846678  24.6513387  24.4679881  29.6808948  24.8072308  22.9641834
  24.8398181  10.6606024  33.0961967  24.8160401  10.8325915  32.1369838
  23.9902837  11.1070916  33.3607644  29.6603525  26.1495441  25.9247216
  29.4758669  25.3179878  26.3685761  28.7853320  26.5776315  26.0089810
  23.4163707  21.7664069  28.8101626  23.8622770  20.9287033  29.0617565
  23.9307817  22.4439491  29.3149145  21.8569831  12.3943510  17.1964766
  21.3194665  12.8858560  16.5288722  21.2873324  12.5721792  17.9720739
  26.3762484  22.9460633  27.4477016  26.3632359  23.8613862  27.7243804
  26.8847433  22.5523180  28.1782234  43.5446968  54.6974955  74.3479504
  44.0381273  54.1183392  73.7161824  42.6334734  54.3305170  74.2276244
  23.9581192  20.5398216  22.8068387  24.8011710  20.4526049  23.2236000
  23.3929123  19.9885852  23.3957727   1.1579603  65.7009617  30.4578057
   1.6140648  65.3760761  31.3007295   0.2506867  65.3265318  30.6958125
  17.9943233   9.1848558  22.5370712  17.6514518   8.3459352  22.7669125
  17.1843038   9.7243191  22.3216157  11.4995944  27.4294538  12.0510005
  10.8265011  26.7621826  11.8976480  11.2647331  27.7635557  12.9765885
  15.9631604  27.3246085  10.2081610  16.3960890  26.6592897  10.7749463
  16.6065536  28.0794564  10.2399428  28.5799523   8.2409107  24.3488154
  28.2249822   7.8432698  23.5403543  28.8369608   7.4786039  24.8794042
  28.8466490  14.7338766  35.4365514  29.3858797  13.9897119  35.7940301
  28.0259631  14.5819181  35.9348552  33.3567639  19.2852270  20.2456982
  32.8194348  18.4316999  20.3161820  32.8694499  19.8100373  19.5952591
  27.8866991  29.7769329  31.4468748  27.8707255  28.8298923  31.6959773
  26.9778028  29.8510102  31.0790676  11.8363158  21.8783693  18.8848939
  11.8349503  22.8109181  19.0985202  11.0625402  21.6112840  19.4779008
  38.5192281  43.5541005  81.6193285  39.0802358  43.1087896  82.3066476
  39.0870747  43.3899843  80.7957421  32.1702827  14.6203699  27.1613147
  32.0848948  14.2855356  26.2344437  31.4339621  14.2756155  27.6190131
  34.8053264  17.7061602  28.2133386  34.6150745  16.7563903  28.2279417
  35.0611324  17.8123723  27.2683076  18.5304152  22.5794672  15.2756557
  17.7121266  23.0911544  15.1389205  18.8867109  23.1955647  15.9787598
  13.0369754  25.9974053  43.9627785  13.1983186  25.6786421  43.0466799
  13.0319092  25.1202363  44.4172707  25.3510414  23.8171764  18.8313680
  25.3373697  24.0696883  19.7516861  26.2263360  23.4348574  18.7045714
  26.5517525  32.0489955  35.5547202  25.8010394  32.2595173  36.1070584
  26.2555622  32.3309575  34.6693150  19.3708480  26.0279843  25.8286136
  19.0568912  26.2213654  26.6968034  19.2655926  25.0827701  25.7469154
  18.9826537  28.4137861  24.7452814  18.4333918  28.6301349  25.5530259
  19.1611252  27.4509290  24.9859924  25.3107696  29.4159269  30.5745699
  25.6328777  29.5575462  29.5939807  25.0765755  30.3526312  30.7077598
  23.5342484  16.9271538  21.9225820  24.1388966  16.2664233  21.5278114
  23.1780652  16.4071326  22.6663671  16.8773432  25.4550291  43.2339455
  17.8464363  25.4225414  43.1613514  16.6869533  25.9849869  42.3888357
  22.2930088  27.2869521  30.6289252  22.0840803  26.4108934  30.1617453
  22.8644445  27.6826219  29.9475717  34.3031039  23.5112301  31.8921457
  34.7338285  24.3100923  32.3139808  34.1006171  23.8256416  31.0419937
  23.1728515  23.2202344  23.1152264  23.3827685  23.0222687  24.0258754
  23.2819613  22.3655835  22.7192923  26.9981638  26.4993498  35.4738895
  26.0135653  26.6859932  35.5747054  27.1502089  25.8417851  36.1519331
  13.2899594   5.3434768  43.1404790  13.7277957   6.0750384  42.6311201
  14.0455311   4.7155564  42.9380822  32.0337906  10.1841059  27.7980423
  32.1140860   9.2100139  27.9962986  32.2335102  10.1371642  26.8519286
  44.5501589  16.1198501  25.6406402  44.6663548  16.6121706  24.8588305
  45.4705101  15.7561614  25.7170219  41.0315982  23.6321937  29.8084726
  40.6395041  24.3468872  29.3089189  41.9877774  23.8516076  29.6686146
  28.8212406  27.0140941  30.9644820  29.6373944  26.9972969  31.4622014
  28.1335964  26.8376803  31.6699846  27.5600493  11.1336889  29.7367588
  28.5160067  11.0448920  29.6365856  27.2989903  11.3708216  28.8293214
  43.9880724  56.3111464  70.2178979  43.6021274  55.5206416  69.8509628
  43.3217204  56.5293027  70.9211497  22.1701549  14.2135140  26.6270945
  22.2771260  13.4731655  27.3431356  21.4790617  13.7574981  26.0560326
  10.0848121  19.8164913  16.1646545   9.1362281  20.0137721  16.3470933
  10.3037517  20.4692571  15.5067806  18.7239371  12.5278725  41.4516735
  18.2598450  13.1906069  42.0198759  19.3371266  13.0701548  41.0253600
  37.9809529  16.9013252  28.4203914  37.9623342  16.1936480  29.1008270
  37.9936207  17.6938892  28.9701533  19.1211888  26.7378322  28.4733114
  19.2581900  27.6707904  28.4437851  18.5479367  26.6836136  29.3336319
  54.6739529  56.7950703  69.8588469  55.0703612  57.0497192  70.6803564
  55.4776286  56.8950316  69.1875978  34.6238535  14.9411100  28.2300648
  34.8941064  14.0943036  28.5203721  33.6368415  14.8849143  28.3149042
  18.8470126  24.6169164  22.4919440  18.5333042  25.4252827  22.0247821
  19.7890627  24.7950424  22.4441495  27.8516532  23.4716414  32.9857783
  28.2861496  22.9140810  32.3572768  27.5736756  24.2321318  32.3974959
  28.9120606  30.6206396  28.1250790  28.8347441  31.3327764  27.4734100
  29.7800074  30.2709303  27.9558613  29.9319432  21.1476347  33.5767150
  30.0842593  20.3769641  33.0131308  30.7898765  21.5863276  33.4317972
  42.2786807   6.3616352  32.5398837  42.4086658   6.9334306  31.6604962
  43.2018201   5.9273589  32.4831829  21.0340660  20.6129666  28.0245579
  21.7624961  21.1560042  28.3099691  21.3475522  19.7275900  28.2912920
  43.7126344  36.3294836  74.3485040  43.5462018  35.3636436  74.3667580
  42.8021879  36.6021435  74.0193263   6.5976285  22.7796004  20.6440949
   6.1206659  23.6070838  20.8271550   6.1077058  22.1493005  21.1841972
  18.6670299  21.8226430  27.7394078  19.5413013  21.4559516  27.9395060
  18.5207689  22.4011867  28.5076900  14.9293576  13.6229825  41.4451293
  15.5678292  13.3166561  40.8667359  14.4574582  14.2673067  40.9053690
  27.6855957  14.2507927  25.6369181  28.4725068  14.5193924  26.1605524
  27.9417405  14.5673398  24.7292054  15.9499437  16.9785173  54.0041599
  16.7470950  17.5274547  54.2040492  15.3739588  17.2118410  54.7825034
  51.7681221  43.5464785  75.0647850  51.9493383  44.0635246  74.3126348
  51.7319739  42.6278563  74.6956244  12.5634957   8.3997688  24.3553926
  12.7698810   9.2083813  23.9175922  11.5686884   8.4246176  24.4803747
  26.4334713   6.7783137  23.3122781  26.1984063   5.9252083  22.9190746
  25.8840427   6.7681424  24.1253850  11.6557117  11.8782242  21.0534266
  11.1911294  11.3854228  20.3446962  11.4561755  12.8034519  20.6912237
  16.6251957  17.5881610  40.1086416  17.3335250  18.1101485  39.6671873
  17.2749895  17.0255634  40.6233482   8.0293889  13.6640096  19.8773061
   7.7963404  14.6153857  19.7614265   8.3017014  13.6213451  20.7847588
  10.7127951  33.4746904  34.3489375  10.2764571  34.0603508  34.9936936
  11.3017763  32.9066962  34.9595500  12.0984507  21.2769468  22.2659110
  11.9942872  22.0831254  22.7503577  12.8296182  21.5187196  21.6449295
  23.0349847   6.6132207  20.4811598  23.5234447   7.4948238  20.5442941
  23.3930035   6.2924811  19.6239718  27.9727470  27.5390829  28.5221367
  28.4170092  27.2339832  29.3416466  27.8386164  28.4594065  28.6690914
  25.6355529  15.2751928  26.9693473  26.2413642  14.7013405  26.4977811
  25.9254341  16.1547667  26.8039146  20.2755673  21.7818625  24.1725087
  19.7899732  21.3921147  23.4131092  21.1148231  21.2599865  24.0997240
  26.2170943  33.2905290   8.1391214  26.9133053  33.6545669   7.5208026
  26.3397115  33.9149962   8.8820221  24.8508226  32.6374855  33.5806019
  24.2893915  31.8409238  33.5016114  25.1448654  32.6696663  32.6149331
  32.4678877  19.8707990  23.9735049  31.5426978  19.9979405  24.3202990
  32.4406357  18.9239468  23.8678666  42.5209001   8.8967860  21.8550161
  43.2741525   8.7712840  22.5384645  42.8179306   9.8524942  21.6412678
  16.2629207  15.3627961  17.4755319  16.3750791  16.2986607  17.2865274
  15.3486856  15.2020709  17.0868366  24.2155979  14.0679619  17.6652290
  24.9061674  13.8595164  17.0452638  23.4370560  13.5827474  17.3554662
  24.3199207  29.7864763  21.2141483  23.5778358  30.4236124  21.5230852
  24.0568639  29.7247320  20.2801858  15.9115290   4.6614477  43.2155404
  16.6383382   5.2891941  43.5380037  16.4894753   4.2408091  42.5200352
  21.9965812  17.0829122  39.3989144  22.3114710  16.6514044  40.2342080
  22.5594438  17.9056809  39.4855351   1.0218856  67.3196806  26.1453563
   1.1740584  66.4238527  26.5517359   1.5599529  67.2639727  25.3647932
  10.2577995  31.4259955  27.6464910  10.8648683  30.7775428  28.1262652
  10.9465829  31.9031516  27.1172122  34.6252673  30.3952362  27.5685632
  35.5491884  30.7043723  27.4027630  34.3133732  31.1491351  28.0747583
  30.5519030   2.8445521  17.2053857  30.3105562   2.4203476  16.3304333
  29.7648511   2.5882756  17.7298401  29.9286474   9.5355370  38.1549858
  29.4673393   9.2550188  37.3063890  30.8329905   9.2217320  38.0308913
  33.9012414  28.9866488  19.1515700  33.1942157  29.3148075  18.6131956
  33.3543503  28.6393590  19.9395432  42.4244227  14.9876777  24.2937743
  41.5340735  15.3860244  24.1539105  42.6558512  15.5016477  25.1189293
  44.5461992  22.9860022  24.8246640  44.2668917  22.5205108  24.0299089
  45.5410086  23.1128507  24.6760218  30.7956608  19.8542735  18.8377574
  31.0024300  19.0445765  18.3638533  30.5001780  20.4190526  18.1017511
  30.1666583  35.0151814  30.2375390  29.3431371  35.5277016  30.5190109
  30.6368435  35.6726845  29.6682963  38.0397285  25.7873728  17.4932637
  38.7924631  26.1339461  17.9950310  37.3223600  25.8024107  18.1363288
  32.7611364  35.6251161  33.7721036  32.5144978  34.7217099  34.0964476
  33.5445045  35.7845780  34.2759589  32.8966889  34.2997887  30.9968178
  32.8212673  34.7148006  31.9258744  31.9810709  34.4286790  30.7085935
  27.9362673  26.1244595  19.2695858  27.1903680  26.1002698  19.8264056
  28.0814267  25.2059115  18.9685810  32.1811804  33.0951763  34.2001100
  32.2962422  32.1835508  33.8543873  32.4508725  32.9968257  35.0920573
  32.5577649  15.3286961  37.0629919  32.4823591  14.4902070  37.5842793
  32.1723786  15.0855026  36.1938974  37.6356167  21.9240081  31.9534202
  37.2774472  21.8825728  32.8043692  37.0785237  22.5921264  31.5053305
  37.4118394  15.4818024  22.9012501  37.1651508  14.8875822  23.6381372
  37.4446225  14.7991998  22.1957336  33.7172035  31.7238193  11.5009677
  34.1601645  31.0470406  11.0063140  33.7243919  32.4642302  10.8753804
  40.6665013  24.4403373  25.8026307  40.3099395  24.0356396  24.9462985
  41.1741757  25.1431549  25.3968301  39.1520282  25.7454465  22.2012026
  39.5138815  24.9658776  22.6445792  39.9484396  26.2400840  21.9838641
  37.0994150  26.9102861  20.6088200  36.7687224  25.9759222  20.6248877
  37.7561041  26.8601989  21.3210867  39.2475424  30.1212928  19.3337941
  38.3688401  29.9514250  19.0104248  39.0524594  29.8495699  20.3147513
  36.5344997  27.0012450  15.1070225  37.2218584  26.5843749  15.7543838
  36.4993769  26.3410819  14.4181489  40.3376259  25.8664319  27.8750918
  39.4622826  26.3201141  27.7719965  40.4853480  25.3873354  27.0825023
  44.1355623  23.6637205  14.0870425  43.9529668  23.8669984  15.0049968
  43.2259461  23.5402472  13.7463815  35.6442801  22.0587006  11.3481921
  34.6983393  21.9973947  11.3929507  35.8276801  22.2693540  12.3272766
  29.9307862  28.7095247  12.9839820  28.9970449  28.4951650  12.8021942
  30.3787434  28.1985367  12.2405617  38.2611142  27.2904680  26.8678414
  38.3218128  28.1236882  26.3250497  38.0142826  26.6875496  26.0758382
  38.6652070  33.7494092  26.8705179  38.9269429  34.2455832  26.0643180
  39.0824846  34.3227406  27.5482309  44.2994070  21.2716965  22.7837861
  43.4156562  21.5608033  22.6827608  44.6469392  21.1971995  21.8795894
  33.0375575  24.4008112  23.7603325  33.1750192  24.5762670  22.8212091
  32.0589242  24.6808350  23.8151070  23.4172598  19.4728069  20.5489028
  23.5985977  18.5728563  20.9130207  23.6492864  20.0240793  21.3492647
  37.6201230  25.9788372  24.5898471  37.8124751  25.0961486  24.9255569
  37.7067996  25.8153172  23.6241229  29.2299939  19.9529592  29.8718306
  28.8310533  19.4553892  30.6165553  30.1493890  20.0200581  30.2448958
  28.0144871  24.4461928  37.1488782  28.8992943  24.7015896  37.1095691
  27.7606111  24.5347391  38.0787902  34.4910817  24.3319982  29.1797461
  35.0216493  24.9855747  28.6648256  34.8093054  23.5359117  28.6610130
  33.2460353  32.3927062  37.0342612  32.3636612  32.0814479  37.0492983
  33.4910285  32.5037617  38.0007074  18.9857242  21.1017391  21.6137919
  19.7475671  20.5119160  21.5089789  18.7771355  21.2616290  20.6587128
  34.4091145  17.5820784  25.5341370  33.7059420  17.6630546  24.8077632
  34.8419916  16.7732195  25.1479860  41.6218634  26.7893131  21.9991993
  41.7569468  27.0023826  22.9303102  42.4792928  26.9189554  21.6355025
  50.4356631  14.5723181  24.0215846  50.1783206  15.3924216  23.5127596
  51.1974059  14.2828329  23.4757674  41.0128503  19.4738513  24.7276738
  40.2475180  20.0084432  25.0056135  41.0156295  19.7189227  23.7751532
  24.2009111  26.7734695  27.0542593  23.5841422  26.5300851  26.3446869
  23.9336114  27.5805341  27.4344038  22.8292408  28.9598258  10.2418616
  22.3039481  29.7358303  10.1717753  22.1289978  28.3141308  10.5593919
  31.5429614  23.3969574  36.1788415  31.5360156  24.0641565  35.4811974
  31.8070245  23.9392428  36.9780780  22.1260447  19.5525291  16.2521109
  22.6315772  20.3439664  16.5378442  21.3993354  19.9790881  15.7084416
  17.2475533  17.7151853  29.2475468  17.3392688  18.0228415  30.1023327
  16.7773570  18.3289603  28.6999653  24.1132056  13.3422476  42.7334576
  24.0009311  14.1974298  43.1449150  24.2724002  12.7471505  43.4514633
  17.8663740  19.4419955  23.7612053  17.9881461  19.9295208  22.9146983
  17.2702241  18.7675125  23.5804675  31.2669448  22.8363246  18.1028146
  32.1796728  22.5723951  18.4281145  30.9387963  23.2427627  18.9729402
  37.0650942  23.5483950  25.6534285  37.6462871  22.8217316  25.9179077
  36.3384385  23.4161083  26.3229311  30.4644028  31.8358010  30.8432960
  29.8735447  31.6818287  31.6358414  30.1644612  32.7497128  30.6077952
  40.6644746  31.1888994  15.9337984  41.3409545  30.6646978  15.4763290
  39.8365112  30.6962571  15.7025759  30.5490450  26.6823470  19.9413583
  29.6362835  26.4434544  19.6770236  30.9989288  26.6910943  19.0793847
  24.4241948  26.4586182  34.9619724  23.8627765  25.6578947  34.9290430
  23.9297200  27.0340834  34.2777491  32.4189757  32.1559481  26.7563523
  33.0711542  32.6508823  26.2333347  31.7018676  32.1004971  26.0862311
  37.1517925  17.9256069  33.1243039  38.0725125  17.9749872  32.9607826
  36.7731956  17.5361356  32.3113335  41.8320454  35.4914110  17.5278305
  41.3105135  34.9252375  16.8846142  42.6906453  35.5001754  17.1237205
  31.6142309  20.1528786  30.9268755  32.0697063  19.4398315  31.4476350
  31.9238461  20.9344313  31.4220323  37.5142158  36.8984272  16.5257877
  38.4695547  36.9831193  16.7493174  37.3233325  37.7966386  16.1323912
  31.2976860  29.6531248  27.3846840  31.9132935  28.8748937  27.1490227
  32.0164996  30.3445818  27.1949663  44.7358621  36.0088467  20.4021726
  43.7567045  35.9210596  20.5755212  44.7836246  36.9889666  20.3478121
  23.2549058  30.6665215  33.5878916  23.3784850  30.2731131  34.4919294
  23.5215388  29.8942604  33.0481488  42.5562353  22.6649116  26.5815498
  41.9014735  23.2979558  26.3640172  43.3250391  22.8139566  26.0159827
  26.4864752  31.1066110  25.6503086  25.9461865  30.4045133  25.1697591
  27.3715606  30.9169761  25.2831040  33.3770424  26.2128054  18.7277430
  33.8111479  27.0265270  18.6014613  32.5910421  26.3273560  18.1513359
  36.0771172  34.6361071  16.3652431  36.3809015  35.5128483  16.7205244
  36.8189654  34.4620771  15.8021810  38.2105952  36.8117160  13.3077984
  38.0103500  35.9233946  13.6631046  37.9560754  37.3565200  14.0682073
  43.9426255  26.5343014  12.1917551  43.1585299  26.0846303  11.7774519
  43.7221703  26.3461397  13.1654792  31.8491434  24.4857776  28.6350372
  32.7679903  24.5494163  28.9858545  32.0089392  23.7371869  28.0213924
  39.0091653  32.9242747  12.2641289  39.0988742  31.9661994  11.9675033
  39.1966221  33.3085391  11.3743246  31.5465606  27.6816111  24.1793020
  31.0984742  27.1893174  24.8835602  32.2444509  28.1390654  24.7717973
  35.3586409  20.0904187  14.6926081  36.2132370  19.6540162  14.8674793
  34.9817549  20.2663377  15.6099586  46.7919012  24.7012756  17.0212143
  46.3963061  23.9426054  17.4277281  47.7519760  24.5705895  17.2557089
  34.7590373  27.1516018  37.1531157  34.6272586  26.6172410  36.3825211
  34.5134052  26.4715921  37.8617297  33.3763336  33.8490936  18.2638382
  32.4434131  33.6135556  18.5873238  33.8314919  33.7963095  19.1069841
  46.5234210  24.9875023  14.4490554  45.7185885  24.5027042  14.2586267
  46.6387285  24.7163612  15.4112266  38.7804853  29.1431509  15.1448768
  39.0834997  28.2679173  14.7174768  38.1532305  28.7714810  15.7516074
  35.4667464  30.8502521  16.8118977  34.9505335  30.0170010  16.5738802
  35.7385169  30.6050862  17.7410040  34.1868058  34.9154732  28.1333621
  33.6732575  34.0956726  28.3060333  33.6700559  35.5754690  28.6561080
  40.3570069  34.1105433  15.6529644  39.4068660  34.1949974  15.3803211
  40.4567930  33.1648124  15.7355851  21.0655650  31.8799057  32.3701613
  20.7995161  30.9723243  32.0547620  21.8876117  31.6360224  32.8839033
  34.5855863  23.9971564  16.5842199  34.4316444  24.4794410  17.3948744
  35.4394800  24.2446565  16.2801325  35.7622374  10.6015207  10.0877857
  35.3845352  10.6597962   9.2012309  36.7251798  10.5684018   9.8793081
  29.6024904  26.8364272  34.9710366  28.6877725  27.2139198  35.0977012
  29.8146046  26.6764763  35.9165778  50.0450131  54.0199079   9.5592446
  50.8742729  54.4685311   9.7464161  49.4756308  54.8027564   9.3526224
  48.0762133  44.8885220  18.9860278  48.3983220  44.2159898  19.6068434
  48.2568055  44.5006215  18.1183511  40.3447889  37.6317268  16.6423413
  40.8677154  36.7829331  16.8344904  41.1318141  38.2106046  16.3416519
  48.5021463  55.7029178   8.0496229  47.7576246  56.3026512   7.8340472
  48.8816352  55.5442509   7.1498939  50.8560635  39.5042250  15.8099941
  50.2630689  40.3250714  15.6871281  50.3704790  38.8670869  15.2326590
  40.7346029  36.7515237  11.9369891  41.1827546  36.0281033  12.5136307
  39.7767365  36.5468091  12.2176138  44.0573329  47.6867296  17.9414408
  44.2532779  46.7381110  18.2040629  44.4522531  47.7781099  17.1257048
  58.4691714  33.5859985  23.0348807  59.3004156  33.1051218  23.3442267
  58.5235006  34.3249866  23.6804516  63.8818777  48.4432939  32.1031614
  63.4119377  48.4256807  32.9337172  64.7420033  48.8546647  32.3811823
  44.9103667  42.5699698  -1.0946196  44.2660552  43.1424516  -0.5644485
  44.4376117  41.7155811  -1.0458500  73.1858333  43.4334367  20.8389319
  72.9561839  44.0761158  20.1608452  72.6635503  43.7684178  21.5843240
  54.8308638  43.4740238  12.6499539  54.2446372  42.7784807  12.2211361
  55.3031228  42.7913077  13.2584966  47.9882583  45.9514123  21.7954906
  48.4633993  45.7970241  21.0154118  47.1720215  46.3949325  21.5382238
  42.9217926  36.1346744  23.4545438  42.1152002  36.3008063  22.9322105
  42.7458242  36.6654779  24.2413980  49.1859196  50.3091026  17.5842954
  49.1671861  49.4247046  17.9960311  48.3143624  50.2386040  17.1245039
  57.7674255  37.6500650  14.8398551  58.4553561  38.2267468  15.3197681
  58.0142953  37.9235933  13.9070173  63.9954062  43.6147227  21.6537289
  63.8518538  44.2700698  22.3614963  63.3721921  42.9191073  22.0044356
  43.0160749  46.2552424  20.3769200  42.3612282  46.7021402  19.8097973
  42.7659121  45.3340780  20.2760602  42.4504794  52.3809406  14.8413231
  43.2506595  52.1247460  14.3492684  42.7378707  53.2531516  15.2203133
  26.1028018  27.6522464  65.7936562  25.2026695  27.8471094  66.0331812
  26.0008793  27.1806599  64.9259814  48.0509598  45.4782859  12.7443768
  48.4837285  45.6676058  11.8680072  47.1748371  45.8303797  12.5659800
  56.7086599  41.8715721  10.2319856  56.7453472  41.1156688   9.6836175
  57.5840307  41.8833939  10.6308658  58.1030205  51.7663997  22.5009654
  58.1666204  50.8446734  22.7250722  59.0567562  51.8600368  22.1279837
  62.9113220  55.9009692  14.7591504  63.2909260  55.0322252  14.4637269
  63.4167787  56.0757633  15.5687508  32.2097329  18.9587135  70.7686100
  33.0421149  18.8560750  70.1906257  32.2507072  19.9217037  70.9990982
  47.9381824  56.6196378  19.5704571  48.0448961  57.6095705  19.4844998
  47.5402898  56.4312338  18.7344226  65.3691778  51.2096070  18.5114732
  65.0038232  51.4808460  19.4147791  64.7098016  50.6100304  18.2526226
  50.1461333  37.8451234  10.9815816  49.7547084  37.0408551  10.4551975
  49.4063953  38.4347362  10.8496646  38.2432998  39.5181185  -0.4452947
  38.3132839  40.3463868  -0.9546395  37.6157811  39.6872094   0.2364232
  58.0247042  38.0126285  23.8844840  58.9259438  38.3826265  23.8563129
  58.1774627  37.1725394  24.4048291  52.9398699  58.9970437  15.1811853
  53.7219800  58.5959524  15.4983956  52.2461799  58.6403535  15.6598805
  17.9594315  29.9526691  68.3994592  17.7421889  30.5932116  69.0726837
  18.6552862  29.4324307  68.8078435  61.6834948  56.1686790  11.5335790
  60.7329118  56.1871645  11.3905930  61.7671362  56.8099000  12.2614181
  31.0587756  33.1924827  77.9284796  31.3009372  32.9678099  78.8782912
  30.4364617  32.4682454  77.7268871  37.1084191  38.9646003  14.7664216
  36.2989497  39.1336698  14.1957754  37.6382655  39.7309690  14.4734158
  46.2084189  38.4500737  15.5144396  45.8879432  39.3320109  15.7810016
  46.4006298  38.0113859  16.3351264  50.5774573  53.7066958  24.5020334
  51.0180136  54.6057501  24.6246431  49.7415747  53.9058006  24.9307971
  44.7178698  43.6109116  21.5477739  43.8046213  43.4905836  21.1368671
  44.5566695  44.2946003  22.1958805  58.3149501  49.0602944  23.1079562
  58.5050940  48.2653703  23.6381182  58.4840755  49.7395181  23.8041486
  63.8557725  53.5409417  13.9426897  63.6340617  53.6008839  12.9781823
  63.7508030  52.6203470  14.0789677  45.1993731  52.5736922  14.5924393
  45.0393141  52.1652683  13.7036384  46.1892060  52.5012861  14.5437359
  71.2588988  46.1077842  24.9615575  70.4763764  45.4728583  25.0294456
  71.1258236  46.6259629  25.8216474  37.7540670  39.1382796  11.7795626
  38.2239688  38.6511286  12.4793587  38.0125337  40.0635060  12.0537098
  36.6370533  48.6745774  12.6161434  35.9681160  49.4021807  12.5238723
  36.8600283  48.6960298  13.5625512  51.3941426  49.4142259  16.3638987
  51.8415669  48.8270794  16.9765293  50.6584294  49.7844751  16.9087617
  50.1465613  49.9762980   2.1493760  49.8850965  50.5692113   1.4436881
  49.3252659  49.8628357   2.6624866  54.4167756  38.2492699   5.3573975
  53.5407222  37.7549819   5.4406229  54.8654173  37.5779184   4.7816640
  63.6113700  47.0991959  26.2001841  62.7134066  46.9951933  26.4785682
  63.6473335  48.0111717  25.9805186  41.9664579  32.0355350   9.0602878
  42.2284295  32.0347886   8.1267659  41.1303576  32.5165662   9.0361913
  47.1718924  37.2718005  24.6583775  46.9988330  38.1516728  25.0780868
  47.6045725  37.6581223  23.8220240  44.4282876  36.5036549  16.8187389
  44.7208500  35.9604040  16.0139479  44.9595641  36.0707069  17.5016312
  51.0483315  38.9443774  18.4163893  51.3763264  37.9922725  18.2351369
  51.1335220  39.3311860  17.5641820  50.0756165  35.9626139  19.7235608
  50.7190210  36.1489715  19.0057240  50.6528037  35.8514669  20.5201379
  64.1204447  62.3132944  16.1429123  63.3440604  62.5056337  16.6828595
  63.8431230  62.9432127  15.4027084  43.1042379  47.4815591   8.9478027
  42.7026458  48.3192226   8.7124037  42.3301648  47.0112130   9.3506557
  45.9984776  35.1209951  23.3256974  45.3977147  35.6858651  22.7978900
  46.4411534  35.7903475  23.8896532  67.8364764  50.9484015  15.1289307
  67.2690870  51.3432071  15.8177068  67.2578813  51.0292668  14.3609801
  51.2411115  51.1366313  12.1653930  51.3517629  50.2748585  12.6252341
  52.0659580  51.1052970  11.5920707  51.7902836  36.3114236  17.5023419
  51.9416060  35.6783664  16.7845466  52.7416098  36.5308366  17.6804534
  42.0946641  35.2950786  13.7630935  41.9697284  34.4077330  13.3225716
  41.4305187  35.3062317  14.4416971  62.5402325  56.9603846  24.4517429
  61.6015346  56.7319140  24.6020697  62.9669092  56.5261875  25.2532204
  61.9202376  59.9448559  19.5920103  61.4444401  60.7656790  19.9501172
  62.8408462  60.3400219  19.6268058  65.2992162  63.7193386  22.3942915
  65.6675540  62.8640870  22.6768531  66.0853490  64.2964265  22.3245747
  58.0815995  53.9933452  35.9383369  58.2107348  54.7494036  36.5230480
  58.7645118  53.4117763  36.3748281  57.4711133  65.2906821  14.1491562
  57.0581843  64.9197059  13.3971397  57.2003668  64.6966172  14.9076740
  54.0584616  60.9679940  18.6391512  53.1928113  60.6308203  18.4656157
  54.6728593  60.2672672  18.4263922  53.5173182  54.4793986  26.2226395
  52.8490910  55.1155085  25.8399406  54.3251263  54.8223054  25.8574637
  48.5312431  71.8292921  29.5817727  48.6343041  70.8142118  29.6305590
  47.6340803  71.9735955  29.8334388  43.2199801  45.3910726  11.3639377
  42.9569137  45.3193481  10.4559931  42.4277025  45.1211024  11.8133735
  52.1205362  66.8808535  18.9942148  52.7066672  66.0733329  18.8118857
  51.2669872  66.5603330  18.7182260  61.3964805  50.5120872  29.1182662
  61.1087262  49.6178834  29.5241165  61.2052822  50.2921925  28.1905449
  60.4214299  54.5884930  23.6759490  59.9617977  54.6746068  24.4984154
  61.0658034  53.8769070  23.8887318  70.3376175  59.3455155  25.0002146
  70.7730870  59.0251464  25.8261664  71.1522759  59.6249205  24.5067302
  26.4501124  35.7900946  80.5643237  26.7347058  36.1134056  79.6915862
  27.3309473  35.5213207  80.9653435  58.9372164  55.5902879  21.5064273
  58.0414003  55.7820080  21.7537042  59.2751637  55.0664721  22.2761317
  59.1855731  58.0836942  28.9024791  59.1752971  57.1473213  28.9454822
  58.9778398  58.3426361  29.8277437  66.3025656  65.5686126  18.6769883
  66.2584560  65.5987089  17.7094770  66.1106205  64.6154314  18.8663181
  56.8573994  55.0583213  29.5761977  56.6084395  54.2276944  30.1158611
  57.6204225  55.3244336  30.0835219  48.0810508  61.7665887  14.7254111
  48.3713488  61.2691820  15.5249866  48.9883384  61.8289306  14.2945409
  57.8879316  63.4213071  28.6862350  57.6044856  64.2710925  29.1338706
  57.9937155  62.8216443  29.4518160  32.0963520  25.2813629  73.4388311
  32.3070409  24.3595123  73.5778265  31.1838609  25.2254295  73.0992781
  47.9266910  64.5444265  21.8566281  47.5362309  65.3294690  21.4707352
  48.8115393  64.5090095  21.5991612  53.7643052  71.0110659  24.2119471
  53.0877353  70.7315948  23.5364288  53.3032385  71.8249097  24.5453675
  54.2319869  58.3149954  37.9253783  54.4214433  59.2111365  37.5275072
  54.8926548  58.2047874  38.6019387  55.0753340  45.3315178  20.2387318
  56.0524633  45.3337292  20.0698065  55.0342598  46.0820239  20.9250748
  49.8696155  19.3678835  79.2432352  50.0183426  20.3267194  79.3965380
  50.7948715  19.1211325  79.6172065  49.6200028  63.2406699  36.2578397
  49.2102726  62.3611986  36.2821383  48.7764757  63.7896231  36.3892613
  56.1270509  60.1676789  30.7013104  56.2913749  59.1650609  30.7184862
  55.7407466  60.2159312  31.6551702  54.8196827  63.9301712  27.5381659
  55.8269138  64.0338171  27.5638525  54.7949448  63.1140371  28.0444614
  55.1031852  58.4769186  20.7244348  54.3453539  58.2615169  20.1283915
  55.8201464  58.6429221  20.0779333  54.3962456  76.3350847  22.2475677
  53.7516724  76.2383080  22.9630265  53.7946358  76.6485992  21.5169953
  52.5626215  52.0153209  26.7647791  52.9758750  52.9209113  26.6933050
  52.7269872  51.6643909  25.8808288  62.1738748  52.4221791  24.5120576
  61.8364027  51.5186426  24.3422739  62.5940148  52.2357402  25.4190221
  66.1494618  49.2032197  29.5288754  66.0070352  49.4896177  28.6087996
  66.7714219  49.8133195  29.8266373  65.9745865  69.7636450  23.2602008
  65.7306540  68.8255060  23.2411848  66.3455557  69.9481693  22.4021584
  59.0685450  68.4006114  15.7637304  58.2609175  68.4062054  15.1909462
  58.7845025  69.0324138  16.4678962  52.8621162  62.9170485  20.9569697
  53.6145995  62.2705280  20.8658873  52.1203091  62.2574042  21.0343196
  55.0931122  62.4967195  13.1239021  54.5581975  62.3099792  12.3127410
  55.8745491  62.9201054  12.7346587  51.3668993  71.0788349  30.7186782
  50.5375054  71.4906963  30.3882267  51.8873934  71.3641877  29.8869498
  60.7439973  57.0824377  16.4961218  60.2563931  56.2247428  16.5724888
  61.6664748  56.7680191  16.4415196  52.4013730  68.9738160  26.5620292
  52.9088208  69.4554650  25.9334853  51.9142417  68.3263458  26.0213223
  71.5338971  56.3029920  33.7165771  71.3686969  57.2181726  34.0369326
  71.2115684  56.3991731  32.7759547  61.4140435  70.5000600  19.8458440
  61.6677553  70.2807604  20.7552926  61.4649779  69.5454840  19.4682056
  32.2130175  28.5378984  72.0293094  31.2420891  28.3950665  72.0868538
  32.4302408  28.6749217  72.9796824  27.4325819  36.2801250  78.2260894
  27.3608241  37.0329481  77.5692542  28.4237122  36.1113950  78.0146065
  59.0902986  58.3841608  31.6215414  58.6140256  57.6061324  32.0313258
  59.2321622  58.9067766  32.4369165  56.7780522  66.4194092  42.0042825
  56.9342660  65.4692352  41.7819641  57.4820570  66.5918256  42.6358598
  53.3372681  59.7395514  24.4959668  53.4188006  59.0542300  25.2409644
  53.3385084  59.1963446  23.7100393  56.8117623  59.4271311  39.4666045
  56.8358007  59.8498891  38.5508606  56.2012460  59.9928275  39.9193196
  68.0286162  74.8163248  30.4457121  68.1415757  75.7533598  30.2196419
  67.2461800  74.6062618  29.7988928  62.3441942  48.0115882  37.7959772
  62.7533535  48.6200330  38.4519157  63.0042860  48.1455339  37.0879953
  50.9583757  61.2088220  21.3816374  50.1941510  61.2567348  22.0025232
  50.9950500  60.2461355  21.2117625  54.1859108  65.3352037  21.6233386
  53.7487404  64.4976484  21.3572349  54.7543059  65.5434321  20.8531489
  57.8544752  43.6137160  26.8910169  58.7275814  43.5655429  26.4164573
  58.0915619  43.0938153  27.7101753  78.4032161  53.2125430  33.5332086
  78.3118803  52.5337505  32.8156765  78.9471463  52.7258249  34.1837025
  67.3365960  61.5321105  35.4994394  67.1698203  61.7123852  36.4800602
  68.2192203  61.9438122  35.4415389  62.6517737  58.1771635  13.4157379
  62.7646989  57.4746627  14.0788830  63.0133078  58.9452302  13.9948136
  61.4285423  72.9783689  26.0295952  60.4568171  72.8415113  25.8465038
  61.5647084  73.8319635  25.5846326  50.6332693  61.8713049  12.8916758
  50.4788108  60.9770203  12.4739839  51.4090646  61.5678493  13.4814664
  57.4928031  67.4939720  26.6767822  56.6254824  67.2553959  26.3726828
  58.0967393  67.1387246  25.9903666  50.5297871  58.5056860  21.1197898
  50.3971712  57.5637302  21.2965277  49.6611089  58.8717116  21.4679541
  71.9304334  62.8735842  18.2239992  72.3395968  62.0264522  18.2475891
  71.9775931  63.1725692  17.2864548  35.7838709  30.9275251  81.5908407
  35.5082404  30.2253742  82.1909347  34.9333793  31.1215904  81.1459840
  69.9349124  50.5094705  27.3647397  70.7779981  50.7800980  27.0017332
  70.2222052  49.9308470  28.1367328  52.1197073  55.5746825  10.1443759
  53.1142471  55.7147105  10.1239896  51.8662651  56.2286904   9.4240038
  34.1486855  53.6689531  75.0858278  34.4407429  52.7276626  74.7993423
  33.9845753  53.4660579  76.0135644  64.8535319  68.4161150  34.5336017
  64.2724347  67.9929152  33.9149495  65.5768181  68.6848787  33.9514317
  56.9207864  57.1121782  11.9177522  56.8494086  57.8534821  12.5907417
  57.5694572  57.4822179  11.2731594  56.4898301  65.4075135  19.3941704
  56.1482890  64.5574969  19.1202817  57.3970685  65.2533368  19.7220337
  65.1762016  59.1023164  16.9245824  65.6772454  59.8439949  17.3353625
  65.8720463  58.6856372  16.4038662  63.7980080  57.8240332  29.8902240
  63.1747329  57.1169104  30.1222789  63.2708833  58.3955487  29.2704613
  58.1489219  61.5999084  26.6687347  58.2932120  62.3224073  27.2528466
  57.2315540  61.5069758  26.5545334  57.9943101  52.0832038  31.6322600
  58.5559674  51.6033802  32.2451839  57.2069350  52.2705635  32.1267577
  48.1954157  54.4595465  26.7590596  47.8546923  53.5717752  26.8139672
  48.7594418  54.5220814  27.5849890  62.3652208  69.4005714  22.2453392
  63.2407138  69.7119529  21.8668833  62.2017155  69.9701408  22.9888800
  63.8394455  56.1473672  26.4670149  64.4612154  55.4407365  26.0770289
  64.5186779  56.6204702  26.9429421  22.9720727  31.4750153  72.1515467
  23.2545983  31.4256442  73.1055462  22.5466018  30.6060305  72.0606807
  54.2396690  52.3880722  29.1988966  53.3822164  52.7394615  29.0071470
  54.6274260  53.1469463  29.7361762  74.3244881  57.4198969  16.3628187
  73.4406902  57.0886167  16.0681563  74.3816350  57.2123765  17.3058575
  53.1807642  57.7047302  22.7490075  52.5041370  57.0600013  22.3239861
  53.7843098  57.7447458  21.9365903  45.0906437  34.5627873  86.8509529
  45.9323629  34.9647870  86.5892111  44.9026786  34.0061014  86.0514606
  28.6622869  34.9048250  74.9222176  28.3440956  34.2124907  75.4304347
  29.4207066  35.2519215  75.4688812  53.6748171  74.6527172  33.7712668
  53.5260075  74.4529681  34.7060221  52.9652893  74.0989892  33.3526817
  31.1964803  21.6791314  71.1467766  31.0349334  21.3085287  70.2513019
  32.0981816  22.0705528  71.0158079  45.9054065  63.4997645   7.7319774
  45.9914290  64.1495345   6.9833710  46.6198675  63.8118144   8.3230573
  41.7633527  61.2675506  32.6751561  42.5378174  61.5158964  33.2153898
  42.1490898  60.5950869  32.0668807  44.6077196  23.6780720  79.8206575
  43.7326082  24.0121892  79.7399730  44.5356547  22.8666267  80.3399174
  57.6978340  55.5967070  38.1380194  57.9292727  55.1756426  38.9455925
  58.4267627  56.1241831  37.8818977  55.0854340  60.4112399  33.2811826
  54.5287146  59.8235075  33.8640052  54.4758839  61.1694139  33.2319866
  37.2347205  74.2534687  25.7239073  37.8096034  74.6977052  26.3259084
  36.4270600  74.8540760  25.7007138  47.3600917  59.1860339  18.7592144
  46.6965117  58.8001741  18.0829465  46.6624511  59.6788720  19.2937511
  55.1635804  61.3984777  21.4407474  54.9082094  60.4598499  21.5678473
  56.1419369  61.2601956  21.4334528  57.5874637  74.3513474  22.5952028
  57.0350491  73.8477707  21.9017726  57.5253861  75.2464260  22.2914751
  57.4381719  61.5142625  23.9542024  56.4861867  61.4634965  24.2809150
  57.8382037  61.9205542  24.6914922  61.6046299  62.2985459  27.5362441
  60.7046266  62.3030865  27.8977903  61.9936735  61.6050942  28.1439794
  50.6873218  69.4853322  43.1728437  50.3500596  70.4399344  43.2754787
  51.4847134  69.5595744  43.7287708  50.5373402  60.1801277  34.9376443
  51.1609233  60.8550386  35.2857878  50.7087248  59.4689533  35.6408215
  49.9074439  54.7872897  29.0824230  50.8871605  54.8772140  29.1037893
  49.8298391  54.1325298  29.8334726  66.9667106   8.2833447  32.5932870
  65.9918490   7.9924965  32.6793630  66.8722666   9.2143615  32.7287189
  52.8943952  61.7559266  14.9270129  53.0876853  60.8035433  14.8826297
  53.7488157  62.0901167  14.5857313  52.9257586  61.3123566  30.8621269
  52.6530865  60.4907874  31.3642892  53.1286054  61.9501505  31.6106880
  70.4478839  56.2691093  21.3829366  71.2305521  56.8395029  21.6074648
  69.8794008  56.4828780  22.1578398  38.6010308  37.6697028  84.2269652
  38.1250190  36.9224850  84.6349895  38.7261158  37.2913555  83.3106172
  66.7275651  46.9567214  31.2455543  66.5157497  47.7760886  30.7993989
  67.7245834  47.0136608  31.3085296  66.2802417  61.0584275  22.9278428
  66.3527666  60.0907007  22.8226055  67.2034229  61.2670721  22.5241690
  65.6383028  66.5829536  26.8901886  64.9955237  66.4817099  26.1681092
  65.2972240  67.3624398  27.3780718  71.4143582  66.9910214  30.4258412
  72.2805127  67.4371365  30.5062521  70.8961206  67.5782848  29.8113864
  57.8533354  60.9744099  21.3692467  57.7018790  61.3406242  22.2607238
  58.3640353  60.1865791  21.4915796  57.3933061  64.7771957  37.8777117
  58.1560082  65.3087467  37.5453702  56.8406079  64.7226169  37.0751403
   9.0405494   5.4525800  26.7986681   9.9301965   5.8903069  26.6977921
   8.5424180   6.1790792  27.2844674  38.9221401  36.5697007  81.7811403
  39.1341487  35.6591936  82.0959418  38.3011185  36.4715343  81.0252068
  71.5851776  58.6242092  27.3563363  71.8237424  58.4779659  28.2847758
  72.4074911  58.1969339  26.8891684  51.4772569  50.3232531  20.7728391
  50.6977084  50.7758914  20.3444391  51.6133410  49.4979908  20.2971471
  51.7339413  79.0278986  19.4073954  52.3540272  78.3451596  19.5489723
  51.0730003  78.5951539  18.8495076  50.4937712  68.7017993  15.7311974
  49.8020917  68.2646413  16.3299578  50.0215274  69.5601130  15.6358555
  54.4521266  70.6050610  42.3954169  54.0888141  69.8685245  41.8387795
  54.8874143  70.0091075  43.0987307  60.3762980  70.7754852  33.4282863
  60.2818360  69.8202414  33.2281395  59.6464561  71.1511960  32.8673522
  54.1139153  68.0615606  14.5407711  54.5728382  67.7872427  15.3568968
  53.2183507  67.6380422  14.7985013  73.9264685  65.8877273  35.0847662
  74.5413313  65.3787315  35.6422177  74.2500872  65.5346289  34.1814245
  63.3140786  63.5550806  35.6503033  64.0088247  62.9280164  35.5932953
  63.6718517  64.2410920  36.2283970  45.2726148  57.2863608   9.4606552
  45.6459689  57.2894743   8.5685083  45.5146145  56.3175456   9.6989770
  55.8079797  71.1181352  37.7134815  55.7577864  71.6372449  38.5224477
  56.4330851  70.4787368  37.9364457  55.0813461  54.4670185  21.8977594
  55.5270888  55.2032197  22.2593484  54.7733229  54.7054211  21.0435804
  79.3871694  63.5950741  26.1235658  80.0472933  64.0452447  26.6407734
  79.8980711  63.3262441  25.3381315  42.2921906  60.0015657  13.2361539
  42.9433353  60.4997765  12.7794353  41.4678151  60.2157036  12.8060350
  68.3902543  62.8620430  22.3049660  68.7033004  63.0640257  21.3809662
  67.9742287  63.7704966  22.4584635  54.4380498  49.0336402  13.9642407
  54.5354119  48.6764424  13.0915040  55.2458726  48.6004209  14.4068329
  64.4577971  71.0751141  30.7788800  63.4873470  71.0507843  30.8787434
  64.5172513  71.9774733  30.3778549  52.4153713  69.1972402  17.3724748
  51.7200418  69.0999442  16.6892137  52.2556417  68.4752673  17.9641432
  76.8124817  47.4124400  20.3432616  77.1049928  48.2966571  19.9870170
  76.4128155  47.6605059  21.1969502  58.5802217  45.8000733  17.7571469
  57.6693688  45.8860625  17.4572376  58.9833461  46.5910586  17.2649336
  55.7624692  55.6231142  25.5613854  56.2058476  54.8812550  25.1553091
  56.5550987  56.0742227  25.9172374  53.6355374  69.4810645  31.2323175
  52.8168628  69.8065697  30.8177543  53.4972217  69.8050821  32.1836825
  58.2694119  53.8403730  19.4288848  57.4921648  53.4285603  19.8316957
  58.6199068  54.3374241  20.2675890  54.6926074  55.4618656  17.2691644
  55.6316364  55.7150973  17.3139176  54.6782216  54.6091943  17.7397720
  29.3392691  25.4458862  73.9169959  29.3265245  25.0476818  73.0448391
  28.6250258  24.9432373  74.4064743  43.9837755  55.9348956  29.0559716
  43.3460703  55.9044027  28.2916028  44.7722444  56.1668013  28.4733161
  48.8927717  28.7746634  74.3187184  48.5016297  28.0262401  74.8108894
  48.9660333  28.3195306  73.4447727  58.9185234  57.9927800  18.7054797
  58.8707175  57.3456161  19.4150918  59.8475004  57.8247890  18.3368685
  62.7656067  53.2517545  27.5398915  63.3867875  53.8310691  27.9607000
  63.3258636  52.4943671  27.2714517  40.5132045  32.0975967  75.0947293
  40.8638346  31.7379623  75.9723212  40.7508003  31.3812762  74.4888751
  46.6726278  59.6420797  28.6733595  46.9209419  60.3114473  29.4265172
  47.3294272  58.9610149  28.8754963  59.5305723  50.8066855  11.7519186
  59.2993500  49.9884877  12.2816639  58.6242808  51.2061923  11.7533360
  44.7384088  65.4753901  31.0717313  45.3531231  64.7551157  30.8283278
  45.3277777  66.2485732  30.9484667  57.1701943  73.3805466  18.5373575
  57.9339058  72.8406120  18.8684159  56.6300250  73.5044469  19.3298017
  49.1570169  69.2446198  29.4940043  49.8013597  68.8086055  30.1051475
  48.8999055  68.4469307  28.9352116  47.9346780  55.1658315  14.3282665
  48.1090520  55.5433807  13.4063849  48.0303376  54.2097189  14.1269151
  42.6601982  59.4802491  30.4504944  43.3089209  58.7253432  30.6486576
  43.3503765  60.1974869  30.5947578  54.6327807  67.3167114  30.0617133
  54.4902348  68.1829308  30.4815317  53.8516850  67.3695693  29.4358154
  30.5699783  40.4547505  77.2231725  30.4792553  41.1225008  76.4623258
  29.7549177  39.9153259  77.0549423  20.2326868  34.9333941  73.9195660
  20.0811918  34.1778756  73.2991825  21.1950835  35.1144344  73.6319004
  51.6275237  55.5587880  21.7007877  51.1898533  54.8664552  22.2208208
  52.0356928  54.9830885  20.9930385  48.8523532  60.9974989  33.0936665
  49.1683843  61.9786401  33.0992097  49.5333226  60.6251852  33.7535590
  65.4263788  66.0534647  41.1470726  65.8776223  66.0744632  40.2656689
  65.1598510  65.1536153  41.2115180  63.0201343  67.5750222  30.5927117
  63.1888286  66.7134756  30.1276681  63.0277113  68.1859030  29.8772028
  49.2641325  68.2714365  26.5110404  49.8424498  67.6742012  27.0392813
  49.8478738  68.2709117  25.7006506  56.8309000  59.3041375  18.6682238
  57.2653107  60.1851748  18.7215940  57.6464301  58.6908273  18.6217532
  61.2939495  55.9789292  33.3524961  60.6965687  56.5706400  33.7775490
  60.6656392  55.1719260  33.3149589  48.3685734  61.0982170  30.1374332
  48.5486899  61.0067256  31.0910382  49.3065375  61.0047211  29.7412488
  73.0798973  66.4382584  27.5865288  72.7152462  65.5329703  27.4168935
  72.2699508  66.9298273  27.6588457  63.2884442  72.9901476  20.4739421
  62.9663390  72.0452023  20.2595513  62.4719263  73.4249770  20.0364125
  66.4775520  68.0778709  42.6839718  66.5416903  68.8702627  42.1655600
  65.8878423  67.5919167  42.0378717  63.6198838  59.0352422  23.1819016
  63.0184602  58.3302802  23.6489250  62.9344048  59.7329412  23.0790569
  42.7204511  29.8956423  81.7242134  42.1711863  29.9297832  80.8772806
  42.7640109  28.8638824  81.7731378  26.4340079  44.0247331  81.2047053
  26.9364912  43.4566686  80.6084690  26.5394205  43.6468111  82.0752126
  71.5307307  71.4083045  27.7844212  71.9451548  72.3236060  27.9848809
  70.6241665  71.7986946  27.5922395  34.1258559  26.6337150  72.4082642
  33.7065895  27.3397585  71.8387996  33.3282840  26.1662153  72.7003884
  64.8516826  63.0276909  29.0542689  64.0754020  63.5212226  29.3430644
  64.4691832  62.2590293  28.5447147  50.9025657  51.6753034  28.9631869
  51.0074755  50.7275928  29.3530995  51.6154092  51.6101818  28.2912716
  71.6503263  62.1261099  22.1580163  70.9605925  62.4707005  22.7378308
  72.4733080  62.4568062  22.5752941  67.3079491  65.4271533  22.7136102
  68.1469372  65.6764259  22.2851903  67.5152154  65.7960505  23.6320183
  52.1202689  63.7181453  27.4867795  51.8591767  64.5578596  26.9971969
  53.1393712  63.8114488  27.4164328  37.7075269  52.5436961  14.3122143
  38.0055592  53.1822781  14.9507251  37.9867148  51.7094850  14.7423497
  46.4587319  59.6883739  24.4308483  46.6871612  60.5388235  24.8016216
  47.1856649  59.0987206  24.6067404  50.8043342  42.6059925   1.7584434
  49.9761570  42.3171093   1.2429551  50.6344895  43.5420223   1.8150218
  73.2815715  53.7971125  33.3202935  72.8167072  53.0002979  33.4695637
  72.6744290  54.5321664  33.4464194  37.3274660  18.5911264  74.5829891
  36.6154679  18.6064705  75.2072846  37.3297281  17.6102708  74.3076981
  61.6475493  49.6654830  23.8247192  61.0375565  50.1093119  23.2041453
  62.4295398  49.4570198  23.2371751  60.7490841  51.4236721  22.0193760
  61.2248693  52.2736786  21.9347032  61.0445793  50.8931565  21.2854026
  53.4742521  58.9180710  34.7662773  52.7760850  58.7139976  35.4619702
  53.9986611  58.1050112  34.8750978  47.8328482  59.3705667  21.7730589
  47.0728236  59.7911917  21.2847799  47.8593772  59.9202177  22.5517184
  52.4116877  71.2114574  34.7847500  53.1319560  71.7937363  35.1840861
  51.9872452  71.9042201  34.2544984  54.8491721  72.9267191  26.8736378
  55.3728871  73.1779141  26.0925952  53.9774372  72.7847138  26.4310927
  66.9011663  54.9373198  25.9387273  67.4458485  54.5062324  26.6327139
  66.8900039  55.8281557  26.2987861  65.0747995  60.0573205  25.3426952
  64.3844549  59.6891046  24.7704270  65.4156433  60.7658432  24.7578226
  70.9627701  60.1927648  20.4183116  70.2086997  59.8301592  20.9305084
  71.2086786  60.9382714  20.8949922  39.1885079  74.2508249  20.5171189
  39.4982603  75.1880312  20.4356397  38.2575412  74.4728375  20.2147283
  43.3280226  24.5589875  65.7435422  43.7121473  25.4105318  66.1470681
  42.9968083  24.1720907  66.5862538  71.3841263  69.5825678  23.1379695
  71.5910591  70.4051230  22.6424058  70.7867317  69.1072735  22.4720283
  27.1298309  30.1283967  66.0687655  26.8607967  29.1945407  65.9962712
  26.7547328  30.4658959  66.8464370  57.9071393  49.8521541  18.9879956
  57.0213874  50.2116113  19.2092610  57.9200267  49.8970474  18.0405476
  33.0219454  39.4141750  77.7857907  33.0252093  38.4486934  77.9615545
  32.1169457  39.6932175  78.0000111  39.1355078  30.2197544  79.8368587
  38.7021673  29.5987529  80.4714893  38.4021894  30.4090452  79.2460958
  38.9990611  22.7687740  73.5450457  39.3605058  22.7087448  72.6453616
  38.2684550  22.0726696  73.4879633  67.1368058  61.7902496  38.3800194
  67.4412769  62.0133388  39.3071375  66.3590201  62.3693949  38.2932681
  29.9024218  24.1287967  71.5307478  29.8649155  24.2055571  70.5580251
  30.3586023  23.2368063  71.5708875  53.2002156  75.4879909  18.1879900
  54.0045667  75.6845264  17.6882686  52.5379145  75.5490004  17.4074666
  62.0866513  69.3424978  25.5440028  62.8190156  69.9531226  25.8151436
  61.5924144  69.3654904  26.4223402  45.9761199  47.4712634  15.5974004
  45.7091509  47.0417372  14.7512993  46.9061483  47.2167345  15.5677876
  19.5451235   4.7499557  22.9684602  19.9203509   5.3013598  22.2369151
  18.8146772   5.2926447  23.2799302  66.3874759  73.7743743  28.7683436
  65.5457678  73.8639642  29.1998111  66.1531081  73.9263711  27.8217093
  17.7095727   4.6794345  25.8292283  18.3715474   3.9874689  25.9741379
  17.0533054   4.2599208  25.2993033  64.4765568  77.3512281  32.2554837
  64.0496698  76.7362153  31.6310194  63.6946069  77.5136882  32.8328713
  64.0929505  60.6131368  27.8659786  64.3851521  60.5184958  26.9541629
  63.2488977  60.0254355  27.8369549  68.5893712  58.5633542  20.5038712
  67.7709561  58.4407013  21.0879685  69.1560381  57.8800070  20.8264419
  32.8003370  42.5893918  74.2422283  32.7085637  43.0265161  75.0975503
  33.7816732  42.4006222  74.2573421  70.6986169  72.9101829  24.3223950
  70.1706357  73.6965142  24.2453648  70.4910851  72.4137116  23.5248825
  36.4121516  36.8168224  79.9532393  36.3325491  35.8727141  79.6845457
  36.3724516  37.3073849  79.1373998  58.0581805  71.7097963  32.2600024
  57.6200544  71.2606683  31.4753943  57.7242048  72.6029393  32.1203379
  69.8867534  65.8825872  21.9806128  70.3296408  65.2761589  22.6490592
  70.4534624  65.6088081  21.2315524  64.3776697  69.1295381  27.9703838
  64.4915740  69.7686093  27.2192193  64.6300455  69.6123761  28.7177961
  72.5130313  72.3322294  37.4769083  71.7151009  71.8449915  37.1666775
  73.1955007  71.6203917  37.2153865  15.3828975   6.4923875  26.7940463
  15.2021364   7.2879659  27.3840999  16.1846729   6.7547272  26.3902133
  34.6581165  43.3155823  87.7085891  33.6963593  43.4694391  87.9127445
  34.6077057  42.3528541  87.6677245  62.5869070  53.5159198  35.6614264
  62.5457614  54.1949454  36.3979576  63.5263010  53.4319832  35.4991927
  65.0070038  67.1285576  22.9063403  65.4772735  66.2925041  22.6062953
  64.3849687  66.7715267  23.5874270  70.5757333  72.1005758  34.8606398
  70.0089142  71.7106279  34.1000544  70.4987228  71.2779199  35.4432118
  73.4422394  67.0023718  21.2146712  73.1759410  67.9582744  21.0084114
  72.7726519  66.5321277  20.6889845  13.8912469   5.0634363  21.8794662
  14.1350015   5.3987192  22.7647821  13.5311965   4.1901813  22.0983386
  69.2356288  72.8657952  26.8108863  68.3332000  72.9664907  26.4592075
  69.7016028  72.5154589  26.0389998  47.4117565  78.6038370  19.5328942
  48.3433490  78.5066739  19.2784208  47.1916863  79.4406815  19.0513008
  54.3476465  67.4934142  24.2997071  53.7090498  67.3655109  23.6060621
  54.2282579  66.6603735  24.7723170  56.5647570  64.7206635  24.2623165
  56.1198795  65.4918003  23.9373211  56.2622141  64.0006560  23.7343286
  54.9524870  69.8964575  18.0570176  55.1557727  69.0253840  18.4775076
  54.1553055  69.7051442  17.5313365  62.5409779  75.7537412  31.3512494
  62.0109478  75.8809351  32.1720469  61.9642130  76.0714671  30.6628520
  52.1814124  75.4679510  23.5175287  51.8414139  74.6718130  23.0735670
  51.4888647  75.6378415  24.1992417  18.8474573   3.3909676  34.9997435
  17.8835366   3.3868698  35.1538441  19.1332933   2.8641864  35.7879761
  31.2595655  47.3551677  87.5255555  31.6912875  48.0590128  88.0495397
  32.0379415  46.9258719  87.1438774  41.8931165  43.7967983  84.6680813
  41.0664569  44.2416590  84.3579238  41.6891582  43.7016961  85.6205179
  42.8705899  37.3288189  87.8184866  42.8398903  38.2823247  87.7947023
  43.2862743  37.1064173  86.9852884  57.0312738  76.8012576  21.6744724
  57.0424454  77.5501108  22.2456818  56.0873432  76.5615956  21.6491575
  61.9176415  59.1077263  28.0385992  61.3953224  59.2475445  27.2611594
  61.2177807  59.2888121  28.7341211  57.8557425  61.8227163  18.9403249
  57.8956631  61.7148359  19.9333467  58.6777952  62.3595271  18.7617089
  17.7812707  15.4024976  32.3931742  18.3222503  14.8253462  33.0140829
  18.2829999  15.2613278  31.5656286  71.5876491  49.8585371  16.3780150
  71.8144607  50.7490130  16.1523049  72.0748921  49.6442051  17.1460214
  73.8259673  71.0460566  25.7426008  73.7997327  71.9905723  25.4233679
  73.3019221  71.0566446  26.5082807  59.0089232  75.7360506  19.7613426
  58.8760235  75.9570139  20.6905708  58.9218570  76.6018971  19.3122211
  58.7344920  75.8975351  28.0523835  57.7439759  75.8895775  28.1492606
  58.8911759  74.9879333  27.7912778  44.3514146  37.0701991  78.9298473
  43.7926981  36.6875000  79.6077166  44.0887149  36.5327442  78.1464671
  18.1026725   6.1628964  29.2372773  18.2825415   6.8855868  28.5968767
  17.2304133   6.4814691  29.6395461  59.6912433  68.6028128  23.2550409
  60.4934681  68.6121785  22.6916348  59.9582834  68.1078648  24.0222712
  29.5109066  31.4272439  71.2128428  30.1974202  30.8512577  70.8951631
  29.5550051  31.2750248  72.2008667  24.6867839  48.5512376  83.1935924
  23.7758696  48.2996016  83.3071506  24.8427893  48.4572718  82.2549122
  42.7827316  41.5355406  77.1071864  42.7526835  40.8820152  76.4013063
  41.8896009  41.4500577  77.5349714  51.1428348  61.7634314  29.0309768
  51.5454806  62.5259225  28.5167877  51.9049490  61.7259922  29.7080631
  60.7852182  73.4719175  29.7879588  60.0207226  73.0282612  29.2509245
  61.4294219  72.7591218  29.5294915  34.7002274  36.7451143  84.2327394
  33.8625657  37.2188036  84.3555255  35.0764869  37.2517655  83.5243308
  56.5797460  69.9650579  30.2824435  55.7500316  69.4596071  30.5098379
  56.2105942  70.7360051  29.8616741  25.4783263  48.9874738  77.0220575
  26.1806976  48.6976463  76.3934552  25.6314775  49.9569215  76.9708709
  60.7641694  78.1042845  22.3506825  61.0084336  77.1996782  22.0771184
  60.0579449  77.9412564  22.9965601  56.4151228  74.5031650  33.6046723
  56.6245904  74.7025313  32.6922679  55.4673203  74.7744222  33.6426233
  11.5004953  14.2090919  19.5639426  10.9874463  13.8795228  18.8284110
  10.8850670  14.8916071  19.8864120  76.7861919  64.3271650  26.8857021
  77.5914510  63.9878196  26.4689032  76.8138855  63.9561151  27.7568022
  55.7316096  72.1344889  40.1916047  55.4950371  71.6106106  40.9693349
  55.3736064  73.0023605  40.5378769  36.1713043  50.7814559  82.4646471
  35.6226029  50.3930974  81.7740556  35.6745353  50.6836082  83.2764202
  31.2056264  33.0681014  73.7802405  30.2701965  32.6856786  73.8031692
  30.9423782  34.0141456  73.5573213  70.7041979  67.6522126  35.6977822
  70.5322427  67.6818539  34.7327079  70.1666692  66.8229601  35.8457533
  52.9565666  65.2962871  31.5130884  53.1508616  65.7456692  30.6704290
  51.9482193  65.3952566  31.4669667  77.4656363  64.3309717  21.4841070
  77.1982276  63.4580604  21.1112171  76.7891976  64.9071200  21.0786533
  70.0082187  68.7076037  20.8669213  69.8709238  67.9717431  21.5010559
  69.1790650  68.6084651  20.3643711  59.7609746  66.0191136  21.4051772
  59.7561752  65.4678494  20.5831873  60.6961918  66.3022739  21.4425854
  14.5335940  34.3978794  68.2636983  14.0622618  33.8464997  67.6437875
  14.0267485  35.2061184  68.2834123  57.7803548  63.9903713  16.4782314
  58.5566584  64.1139232  17.1532524  57.1004558  63.7217962  17.1369765
  62.3174266  77.6781650  27.0540175  61.6632266  77.7658294  26.3569473
  62.4247774  78.6072565  27.3504420  20.4032472   6.5163535  39.4081779
  21.2827597   6.8317699  39.3365254  20.1261056   6.5278942  38.4570325
  43.6187689  33.2452505  69.3505565  43.8020736  33.0501953  70.3093102
  43.7316287  34.2533719  69.3944954  38.8887540  27.9045328  81.0708523
  38.0226331  27.6647421  81.4910377  38.9539050  27.2801548  80.3667751
  61.3536228  60.3543169  22.6831122  61.2988163  61.1122462  22.0538965
  60.5429912  59.8587487  22.4847921  67.6353546  66.5651541  25.0207883
  67.9400443  67.4965339  25.1039905  66.9299230  66.5241851  25.7294770
  41.9611880  39.4677326  81.6032863  42.7450766  39.5423329  81.0508601
  41.9748766  40.4224596  81.9769085  49.3631574  66.5805497  28.8102646
  49.3812529  66.1792087  29.7236337  48.5471437  66.1485727  28.4487363
  39.6929767  27.8442598  76.3965233  40.4138823  27.7446747  75.7751502
  39.9869351  27.3282174  77.1988245  64.9043879  63.5029916  19.5244748
  64.7580125  62.5214739  19.5301575  64.9107501  63.7166318  20.4871007
  46.8812991  61.3643918  26.7186084  46.6648845  60.7703869  27.5219451
  45.9496166  61.6501636  26.5971133  64.3781959  76.5940177  25.9088373
  63.8319734  75.8041175  25.4984247  63.6446814  76.9941146  26.4334664
  51.2346517  82.1562898  21.1205700  52.1208205  82.0663767  21.5200936
  51.3849203  82.8898023  20.4997885  23.0634049   4.1540092  41.7909702
  23.7670022   4.8216590  41.8513529  23.0515673   3.7797716  42.6545680
  52.9629352  56.9054107  32.5056817  52.9558798  56.1206258  31.9261484
  52.6019103  56.5016456  33.3112929   3.1690563  20.8462645  19.2651705
   3.0160462  21.5690306  18.6535614   3.3726742  21.2550633  20.0964315
  66.9430603  64.0711994  27.4027055  66.7243348  64.9164081  27.0264700
  66.2723273  63.8966172  28.0774307  41.4653189  37.3194631  82.9924126
  41.0192207  36.9210528  82.2103388  41.8229426  38.1482967  82.5308984
  43.9874623  30.4279689  74.5141241  44.1231037  31.0470539  73.7482842
  43.0657282  30.2628694  74.4133275  64.2438333  74.0216362  30.4313256
  64.6229473  73.7965638  31.3357334  63.4854821  74.6120343  30.6820391
  77.5272727  61.6089027  20.5139844  78.4733311  61.3917155  20.3575684
  77.2416832  61.7831630  19.6342841  67.2821158  60.8684246  20.0859483
  67.9399026  60.0743578  20.1440280  67.8834026  61.5121498  19.6744163
   8.8658823   9.0875966  26.8898699   8.8264772   8.7407102  25.9243946
   8.4441463   8.2743948  27.3043867  63.3330274  66.6362108  24.9597314
  62.5977339  66.3562489  25.6041904  63.0450916  67.5157983  24.8505533
  66.8430575  74.1884840  23.1706143  67.7731142  74.2904934  23.0314272
  66.4521846  74.5788511  22.3309545  57.3088331  57.0982361  45.5110285
  56.3763672  57.3225307  45.6007923  57.3154707  56.5599552  44.7183334
  51.7841717  79.5140860  22.7642185  51.2235803  79.5985269  22.0063669
  52.3748987  80.3249978  22.6790676  61.2174045  62.4548396  20.9859229
  60.8016795  63.0729933  20.3109261  61.5964854  63.0928948  21.6078166
  24.2584563  -0.8442773  22.3416483  23.8991337  -0.6206222  23.2270106
  24.5090864  -1.7588369  22.4290638  15.4397083  14.5249119  31.5554472
  15.1919129  14.4008196  32.5019782  16.4038248  14.6801316  31.7058821
   7.6168260   7.3019651  28.2450314   6.6332414   7.4236218  28.1194707
   7.5798495   6.7691157  29.0873787  33.1778918  34.9809936  80.1436709
  33.4223920  34.9489665  81.0806562  32.4481251  34.2699719  80.2267493
  61.5095869  75.6576090  21.8642213  61.9581649  75.1480916  21.1471169
  61.0353446  74.9621578  22.3124107  63.7691433  71.2795021  25.9926681
  63.5034111  72.0872464  26.4983082  63.8262290  71.6936833  25.0820584
  16.3539441   3.8510786  35.9439663  16.3004860   3.8627505  36.9203048
  15.5411624   3.3221627  35.7316750  37.8479763  77.9756062  29.5792262
  37.5096608  78.0508356  28.6476324  37.5376666  77.0417654  29.7320530
  60.4890782  64.7382823  14.3623886  59.6093517  64.7479432  14.7555749
  60.5054764  63.8836811  13.8941451  57.6969404  78.0708374  33.0595229
  58.0781373  78.3816663  32.0894872  57.7259402  78.9914712  33.3808181
  69.6171013  74.1133066  36.1811175  69.5431689  74.7517257  35.4069055
  70.2699139  73.4449890  35.7740561  58.4707758  37.3165022  80.7593867
  57.8293688  37.4296159  81.4963258  57.8441447  37.0559272  80.0167227
  74.0944935  69.3799246  23.7104763  74.0495637  70.1767049  24.3374442
  73.1032001  69.2883366  23.6499028  27.0786441  -4.5197201  31.5551597
  26.3208348  -4.8807891  32.0940439  26.5313361  -4.2182363  30.7805780
  35.0132433   5.4798482  21.3294696  35.9069448   5.6543535  21.0384366
  34.5864824   6.3334696  21.2655355  59.1399389  44.0477874  73.8204832
  59.4787487  44.3291258  74.7074597  58.6126587  44.8380673  73.5960833
  23.9580258   5.1854141  17.9903454  24.4614386   5.5172565  17.2551761
  23.1351818   4.8500003  17.5617194  36.6652966   5.5292484  25.6130067
  36.9571648   5.6047960  24.6934873  37.4640135   5.9331318  26.0599172
  31.1556236   6.5526925  21.5511684  30.5991586   5.7708730  21.4982411
  30.5277964   7.1700656  21.0690520  51.8355650  49.7242793  75.1755764
  52.4543930  49.3811408  74.4890648  51.8844956  50.6449099  74.9553121
   1.9006361  58.8887091  23.5062810   1.6815002  58.3683470  24.3005432
   2.8570901  59.1420492  23.7428629  53.7059467  48.7540386  73.2522133
  53.2764005  48.8188424  72.3509212  54.3564253  49.4790417  73.1653599
  58.1684910  38.4704441  75.8645107  57.9138594  39.1920125  76.5163703
  58.7064188  39.0836350  75.3024995  36.8328225  12.8008337  24.1469774
  37.3427863  11.9859802  23.8985916  35.9651936  12.4303764  23.9845145
  27.8218243   2.4590874  18.2397855  27.9656692   2.3029979  19.2016341
  26.9854077   2.0090022  18.1292454  27.4970807  -3.9684655  26.5538839
  28.1373713  -4.5839875  26.1943930  27.5607546  -4.1183985  27.5122063
  35.6887019  -2.0732272  16.9708693  36.5353021  -1.6261948  16.9810298
  35.5083563  -2.1671277  17.9172445  28.3639263   0.0555755  19.9937020
  28.4587360   0.9937383  20.0728171  28.0441714  -0.1844602  20.8774639
  44.2409605  28.2732521  78.7085887  43.7419400  29.0970304  78.7287256
  44.1093731  27.9984928  77.7776087  26.3863727  -6.5184870  28.6207698
  27.0138446  -5.8103731  28.8175330  26.9216768  -7.3148698  28.6320538
  30.6150130  -0.7127446  21.6898177  30.5339220  -0.3409535  20.8031956
  29.8796922  -1.3441173  21.7408408  35.6914372   9.8778168  21.1119832
  35.0936249   9.0871334  20.9565543  35.6401628  10.2974290  20.2231992
  25.5603904  13.1459494  15.3340877  25.9461215  12.7753119  14.5120565
  25.9063490  14.0814410  15.3411685  38.6884544   6.9084837  19.2235595
  38.8785239   7.8458807  19.3142709  39.5510801   6.5419079  19.0470254
  52.2871510  52.4078405  74.6744117  52.8131072  52.6413980  73.8669822
  51.6349178  53.2293916  74.6432151  75.2214942  52.2760313  60.8629946
  76.0215260  51.7375987  61.1531926  74.6904222  52.1659498  61.6951731
  37.3449302  16.7804628  13.1842213  38.2901970  16.6984072  13.2820639
  37.1723877  16.3552268  12.3174011  43.1941452  15.8674162   9.2957122
  42.9032798  16.4438637   9.9955616  42.8300025  16.3356583   8.4930253
  39.4909499   6.2378784  15.4371372  39.9522009   5.8305915  16.1798141
  38.8972862   6.8649612  15.8520126  64.2504745  48.7543125  55.9557868
  64.5326285  49.4814609  55.3072513  64.8629643  48.0569947  55.6828172
  43.7037786   7.3238677  19.6273075  43.7657871   6.5212588  20.2330709
  43.2629220   7.9161566  20.2962897  65.8289968  51.6595037  68.8189198
  64.9848095  51.3003416  68.4326120  65.6568172  52.6078443  68.7118219
  63.2488771  45.0405864  70.9379296  62.5236571  44.8961994  71.5812969
  62.9617239  44.3997303  70.2328823  39.1635835  15.9336868  10.7750281
  38.4592608  15.3642589  11.1095450  39.1687309  15.6730991   9.8567257
  64.3837969  41.0817148  69.5488280  63.9334245  40.5096091  70.1710259
  64.8059696  40.4813524  68.8942251  47.0021407   2.0725080  18.4373089
  46.6852177   1.8914417  19.3363608  47.4438313   1.1936330  18.2717397
  50.4984020  49.1928631  65.9112273  50.6193757  48.2188916  65.6060133
  49.6292599  49.1376960  66.3380828  34.7317431  23.2359401   7.9394992
  34.2164672  23.5547970   8.6660453  34.5846766  22.2808565   7.8939386
  40.2947190  15.2794343  28.4045742  39.5555051  15.9323950  28.5388719
  40.8730023  15.8184760  27.8183440  47.5496719   9.0626488  19.1062302
  48.0180029   9.9242495  19.4048038  48.4044299   8.6234981  18.6967080
  41.1729100  14.9326374  16.7137605  40.5613187  14.2219058  16.4120205
  41.6348285  15.0408020  15.8326735  37.9988424  12.9809780  27.8758925
  38.2264092  13.5348105  27.0616657  38.6501661  13.3949464  28.4994830
  36.1077520  10.8894708  18.5127079  36.3833577  11.0997428  17.6359869
  36.6849517  10.0887429  18.7054274  42.2476965   7.4968294  16.1350760
  41.6886174   6.8202893  16.6366082  41.6527683   8.1596044  15.8510315
  38.7007521  20.0167220   8.7900601  38.4049613  20.9237971   9.0439626
  37.8989526  19.5011025   8.8869909  33.6292193   0.2749193  22.0553130
  32.8806106   0.5428246  21.4327079  33.5233622  -0.6824686  22.1038452
  44.5655167   6.5613720  15.2393097  44.8159735   6.3279578  16.1824190
  43.5802723   6.6011532  15.3505910  43.1484853   1.7525052  15.6837043
  42.5066360   2.4276556  15.4243437  43.9118858   2.3470156  15.8725291
  36.7663537  10.9931410  15.7875610  36.2840985  10.8919368  14.9446401
  37.0763829  10.0753563  15.9386312  27.9659484  19.7265734  16.9987624
  28.2008974  20.5741083  16.5574016  28.1585957  19.1057451  16.2779423
  30.6938241   3.5259991  21.4286913  31.0082353   2.8283546  20.7969755
  31.5401815   3.6495129  21.8948928  40.4777134  11.9153456  22.9247395
  39.8029891  12.6155077  22.7581564  41.2899874  12.4734014  22.9309638
  32.5168263  17.0531836  23.4778462  32.0219570  17.1531791  22.6600511
  32.1622070  16.2402640  23.8965463  56.5723709  56.0536258  67.8673217
  57.5347714  56.1117763  67.9988489  56.4078504  56.8036402  67.2016063
  55.8887659   7.5476783   8.5374791  56.5994138   7.7772008   7.9585814
  56.3445779   7.5475421   9.4096499  41.3040735  19.9395439   5.2727810
  41.4492802  19.2535546   4.5598515  42.1081482  19.7913166   5.8390602
  31.9425379  -2.7569879  24.0767965  32.8029152  -2.5335938  23.6303607
  31.7936422  -1.8559170  24.5137359  26.2368003  25.6242656  16.8069719
  26.0344044  24.8415057  17.3406860  25.5576884  25.5011257  16.0707010
  46.0879138   5.3971442  25.1004203  46.8753064   5.5549844  25.6210385
  46.1046261   4.4059533  25.0613925  55.9030683  45.1381775  74.7479863
  54.9891858  45.2996342  75.0642994  55.8209037  45.3844775  73.7937074
  42.8503258  13.8344901  21.7207241  42.8593971  14.5734358  22.4251441
  42.3918108  14.4026331  21.0500148  36.0635132  15.3918899  25.7559560
  36.1115524  14.4668604  25.5568463  35.8542492  15.3952235  26.6813477
  45.6982452  11.5977850  18.2536800  45.8106401  10.6413728  18.0653400
  46.6425855  11.8674287  18.2283437  35.8988858  13.8102664  20.7743605
  35.3017245  13.4391671  21.4608269  35.5530800  13.3123298  20.0159734
  17.7809074  70.5061732  22.5186677  18.7208075  70.6499028  22.7335497
  17.7666927  69.6127104  22.0998528  76.8990834  32.9310072  69.9780231
  77.7510689  32.4233109  69.9771039  77.0870824  33.5514662  70.7313687
  47.1262854   7.7621239  11.8972480  46.4084184   7.2290391  12.2570070
  47.3442317   7.1935905  11.0975780  58.8260027  55.5797177  63.5109053
  59.4454386  55.4797992  64.2071430  59.1273374  56.3736380  63.0573102
  62.3781007  40.9349658  74.4525589  62.9473223  40.1803158  74.1384726
  62.7642577  41.6477033  73.9403445  34.4398102  13.1128557  16.6931733
  33.7391814  13.6736113  16.2938653  33.9337210  12.7228323  17.4499500
  48.4675349  17.9728871   5.0557204  47.6133034  17.6378684   4.6236054
  48.7790112  17.0234662   5.3072953  64.7698237  36.9835646  69.7856031
  65.5327216  37.1333928  69.2143811  64.1915572  36.3996276  69.2090284
  61.3941470  48.1162376  72.5530900  61.8322806  47.9552214  71.7101958
  60.5231644  48.4148059  72.3034045  34.7046441   5.1582343  15.7175913
  33.9371862   5.1391985  16.3398470  35.0651412   4.2457113  15.9578495
  42.7849073   7.2961067   9.7783249  43.1892725   7.2724002  10.6777293
  43.1246948   6.4121671   9.4855769  37.6448863  23.7759150  15.9741449
  37.8137554  24.5204850  16.5608705  38.3258669  23.1397337  16.2505037
  45.1762357  39.8492059  73.3165847  45.6551786  38.9649878  73.3764879
  45.2133677  39.9143330  72.3507113  32.0211542   7.1049646  15.9945019
  31.3796027   7.7617645  15.6140718  32.6463768   7.7182977  16.4117936
  46.3978409   5.0860998  19.8779311  46.3042724   5.4715256  20.7743636
  47.3340218   5.2735541  19.7129377  60.7536063   6.5683314  23.8595975
  60.6721366   7.4767618  24.1990696  59.7519290   6.3775774  23.7407186
  29.7585804   6.0451351  25.7096310  30.6825639   5.8291039  25.4096969
  29.2700181   5.3800324  25.1762778  43.1459968  11.9244100   6.9978557
  43.3630766  10.9483807   7.0452512  43.3030871  12.2050917   7.8926010
  28.9383055  17.7448829  21.9577861  28.3202380  18.1267260  22.6160034
  28.7334894  18.3844602  21.1990356  46.4440334  16.2290381  19.8677258
  47.1670452  15.6948063  20.1777107  45.7217815  15.5153306  19.8949052
  23.3956777  -0.2636814  25.1950186  22.3985028  -0.0755899  25.1201127
  23.6615560   0.6829211  25.3682801  51.5616311  20.9254892  14.4872820
  52.4708938  20.6992460  14.2604480  51.0462287  20.4553774  13.8399697
  48.4383778  45.1960808  80.1758282  48.7412280  46.1218899  80.0119252
  48.0524698  45.2560684  81.0451453  32.8925351   8.7865316  24.0032734
  33.6935832   8.6431730  24.5861632  32.4686305   7.8984293  23.9405549
  33.9100660  15.7413611  19.2991891  33.0714324  15.9391587  19.7342790
  34.3740178  15.2249240  19.9320918  52.5673078  14.9392669  12.0637772
  51.6505544  14.8742080  11.8072514  52.4850111  15.2459808  12.9550638
  36.9403636  17.9257790   8.7565000  36.6187564  17.2617094   8.0780404
  37.9360702  17.6810862   8.6628434  62.7632110  51.9957588  68.4397603
  61.8607466  51.7630504  68.6851581  62.6801294  53.0112622  68.5104042
  42.1221810  14.8360165  19.1956109  41.2735258  14.9377540  19.6501136
  41.8201226  14.8355509  18.2557399  29.2874525  23.6577760  26.7798899
  29.9833165  23.0729328  26.4535341  28.4955560  23.0985852  26.7031396
  43.6763235  12.6990758  25.4864405  43.0129320  12.3808602  26.1678029
  43.1753939  13.5671929  25.2677604  57.6432573  47.5158467  69.5531031
  57.3310735  46.6794275  69.1644694  56.8667836  48.0697607  69.2814232
  29.7661693  29.2847003  15.9429511  30.4244209  29.2682223  15.2294137
  29.3323451  28.4008721  15.7791704  46.7596168  14.4559228  26.3427253
  47.6813142  14.1308529  26.3139140  46.5981119  14.4270765  27.3493274
  18.0356326   7.3201532  25.4169115  17.9932499   6.4124076  25.7414768
  18.9753862   7.3519569  25.1534887  39.0924832  17.0968308  18.8341668
  38.5127931  16.3152042  18.6267412  39.3755509  16.7459553  19.7806158
  57.9538965  59.5741493  65.2405047  58.3068399  60.2517925  65.8661618
  58.6409259  58.8684553  65.3100039  19.7178651  71.4632055  12.4355367
  20.0423910  72.4017843  12.5354306  19.4899889  71.5010834  11.5358897
  41.9494190  11.3894337  11.1205491  41.2887235  10.7174205  11.0264891
  42.7484131  10.8569784  11.1618110  34.1804662   8.7448334  13.3243160
  34.7032436   8.2759620  14.0647375  33.6872407   9.4168630  13.7882487
  40.3551332   9.3073166  14.9731502  40.5695342  10.2796623  14.8553079
  40.2883175   9.0007869  14.0633807  25.2773400  20.8344427  18.8395440
  24.3771683  20.5936013  19.2360035  24.9290829  21.2152385  18.0245486
  71.2381916  50.6106130  62.5635220  70.8542418  49.9844797  61.9136333
  70.8286541  50.1932011  63.3747164  53.4308840  41.2268529  80.7607314
  53.2538004  42.1891636  80.7477170  53.9904318  41.1536274  81.5838779
  40.6235278  12.8183704  12.8420114  41.2412642  12.3136863  12.2755579
  40.9760858  12.5999603  13.7262816  35.9273609  25.3344227  12.9491455
  35.8874483  24.3573848  13.2450656  36.4416463  25.2033638  12.1254059
  35.7465197  10.8571218  12.8915425  35.6904885  10.8348504  11.8574096
  35.0761933  10.1256391  13.0098286  25.5209822   8.8346377  27.1770743
  25.3944924   9.5875017  26.5780046  26.5042223   8.7707979  27.2058206
  37.4901147  27.2468721   0.0949095  38.2458924  26.6568703   0.1724751
  37.5144733  27.5785517  -0.8234594  40.9430312  31.6080480  -0.6651559
  40.0219513  31.4738763  -0.3447446  40.6584065  31.6795444  -1.6449606
  28.6980036  20.0317061  27.2132882  29.0587176  19.1849651  26.9394055
  28.8500650  19.9366170  28.2016550  24.9372045   8.7664248  20.8785878
  24.9435576   9.6772413  20.4781260  25.7834332   8.4007260  20.7259991
  31.3771290  14.7671680  24.2128507  30.7141822  14.8440184  23.4585367
  30.8844973  13.9656640  24.6392243  47.1339472  16.1099893  22.8790735
  47.7815199  16.5359160  23.4732977  47.7234923  15.5733338  22.2640300
  30.0056486  14.6695426  10.7112096  30.8660850  14.9695207  11.0465492
  30.1844623  14.6674981   9.7607877  35.2262411  17.7804566  11.2309712
  35.6660103  17.3754203  10.4587567  35.9328316  17.6839587  11.8987255
  28.1664519  15.2843634  15.5589125  28.2051263  15.3746875  16.5848073
  28.4667604  16.1825001  15.3132124  45.9089974  24.6003834  -0.4934834
  45.1523815  25.0274003  -0.8514081  46.4528220  24.3975527  -1.2966938
  40.1729804  12.5009905  18.8974370  39.8260473  12.3849831  17.9617151
  41.1297183  12.4664743  18.6767658  38.4487872  21.4070567  16.7246321
  38.1011441  21.1288691  17.5497160  38.1630827  20.6864893  16.1230562
  26.9264089  -0.3003906  22.1685337  25.9863350  -0.3145509  22.4709612
  27.0734402   0.6888142  22.1361903  33.6026174  22.6350310  19.5723881
  33.6076322  23.4732963  20.0131010  33.2161234  22.0638699  20.2849879
  59.7673189  34.0341080  81.8085479  59.9577687  33.1309950  81.6702802
  60.6105355  34.4990008  81.6349808  10.6768189  71.1893643  25.9165049
  11.2281951  71.6276600  26.5639133  10.4385641  70.3477543  26.2810469
  63.3861824  50.2245794  70.5379043  64.2291245  50.4503788  70.9560279
  63.2712384  50.9831159  69.9192595  36.2744454  16.5306084  15.7037044
  36.5672816  16.7590576  14.8188301  36.7839388  17.1136932  16.2549630
  57.2214764   7.9668051  17.1698273  57.6852623   7.1435293  17.0810343
  57.2695273   8.2380182  16.1883954  32.4388578  15.5978387  11.6908783
  33.1181395  14.9213577  11.8941722  32.7335887  15.9125789  10.8176243
  26.8464459   4.2869600  26.9523046  26.6560343   3.7879334  27.8118064
  27.7362125   4.6258346  27.2174853  43.4386122   7.0644895  12.4159457
  43.7655120   6.4188435  13.0630067  43.8193347   7.8782548  12.8455131
  33.9471036  13.6264053  12.6964614  33.5711839  13.7541071  13.6006830
  34.6193178  12.9451613  12.7979285  43.5457180  13.0890205   9.4547477
  43.2964029  14.0470098   9.3023184  42.8543106  12.8840860  10.1095682
  46.4235175  38.5070975  77.9702114  46.4335666  37.8347648  77.2458343
  45.7769844  38.0122984  78.5194227  60.0767708  53.2274983  71.2575318
  59.9959445  52.3840541  70.8617940  59.2883504  53.7049774  70.9527931
  26.4143357  12.3361494  12.9533415  25.9209659  11.9862571  12.2108749
  26.8203853  13.1465813  12.5314748  58.3910991  46.8966094  61.3112130
  59.0410615  47.1320841  62.0192432  58.6606871  47.5511515  60.7055267
  46.1481462  13.6452040  23.1665333  46.2813002  14.5916097  23.1292778
  45.6644699  13.5288075  23.9447898  48.6991740  11.7385395  24.0325726
  48.9316049  12.2528465  24.8309460  47.9941129  12.3469431  23.6475523
  34.5704075   1.8662357  24.1858686  35.3554846   1.3031622  24.3116008
  34.0048870   1.2631220  23.6817678  47.0171964  10.8109518   9.7888429
  47.7600988  10.2156174   9.5579443  46.3987350  10.6231042   9.0133263
  56.5999812  20.5201835  12.5515553  57.0918240  20.1553036  13.3231912
  57.3953056  20.7198723  11.9848948  42.0258131  19.6644426  15.9759372
  41.5276726  19.2912121  16.7102764  41.3241439  19.8780896  15.3451656
  43.9178389   9.1696719  17.5600315  43.9208216   8.5303652  18.3659629
  43.5777547   8.5177393  16.8600668  58.9408183  44.5021071  76.6479163
  59.3401795  45.2306182  77.1933570  58.9953562  43.8236424  77.3383535
  38.6741994   9.6691522  19.3188874  39.2813166  10.4296394  19.0937279
  38.7871765   9.7012506  20.3039771  14.9576256  71.9634682  18.5509938
  15.7701404  72.3425269  18.1466509  14.3424984  71.9406901  17.8203777
  58.4086621  54.2619217  53.5778746  58.0296700  54.6023507  54.4277342
  57.5563703  54.0161980  53.1202353  42.2792346  21.8453091   9.5563462
  41.8784977  21.9521277   8.6740704  42.6136305  20.9312367   9.5383110
  31.5212293  73.8342050  24.8863319  31.6129208  73.6326306  23.9616731
  30.7231543  74.3533885  24.9249180  76.4521852  39.0159673  73.7647381
  76.8866218  38.5842096  74.5328337  77.3189921  39.1652608  73.2543865
  55.3618787  42.6972097  69.2185447  55.2532574  42.0297492  69.8447671
  54.4508061  43.0793905  69.0850693  69.9090476  44.7951760  64.1791300
  68.9924483  45.1205179  64.1775895  70.2870939  45.2940332  63.4175553
  45.9548591  13.0396215   8.0480828  45.2807621  12.9965269   8.6823646
  45.9625208  13.9465385   7.7859425  57.6306673  56.4953163  71.1802613
  57.5100814  56.7419280  72.1356399  57.8262684  57.3561438  70.7851834
  50.2901615  47.0863886  75.6057855  50.2627730  48.0398306  75.4137823
  49.8964517  46.8196446  74.6882556  57.5111515  50.8089971  70.3193403
  56.9501136  50.3236154  69.6653857  56.9380032  51.6245241  70.3784797
  43.4943128  44.0305463  73.1099104  44.2698356  43.5806853  72.7893222
  43.0717865  43.2309367  73.5330579  25.6340250  18.5505108  14.7366688
  25.9181797  18.0204783  15.4744472  24.7792203  18.8771597  14.9675519
  54.4293927  42.7878649  72.8230091  53.9440428  43.5729926  72.6524452
  54.0001269  42.1550770  72.1749116  36.0735725  19.5334602  20.7049637
  36.1571388  19.3576498  21.6948778  35.0800039  19.4473606  20.5907773
  43.6953113  54.1273788  78.4811799  43.1266730  53.8257675  77.7155586
  43.8749427  53.2500824  78.8983714  28.3326785   5.6650090  18.2615321
  29.0061124   4.9991454  18.4403365  28.7350677   6.1088601  17.4652405
  24.6065244  68.0215281   8.3312038  23.7927031  67.6797021   7.9570541
  24.9121740  67.2410533   8.8777952  53.7760742  53.4099421  72.4613619
  54.0656722  54.3447146  72.7495037  53.1977496  53.7121789  71.6821667
  64.5458379  39.1768897  76.4938738  64.0430681  39.7134299  77.1704092
  64.8359445  38.4383897  77.1133221   6.1935245  32.0263283  62.1152536
   6.3095048  32.1752988  61.1795474   5.3503899  31.6103786  62.1958667
  53.4217007  17.3953947   4.1827816  54.1266946  17.9837525   3.7765091
  53.9269842  16.6090263   4.3932642  36.7297264  14.7507688  11.2713212
  36.2976799  14.4611624  10.4146233  37.0249602  13.9512844  11.6452428
   0.9025094  47.4190166  64.9166657   1.3112660  47.2989943  63.9951656
   1.1248763  46.5258739  65.2556633  77.8539057  67.1571821  23.7631225
  76.9036613  67.1727673  23.6268246  77.9398739  67.8763379  24.4181738
  43.0302036  11.7394585  29.8230279  42.5092912  11.7992790  29.0264899
  42.8009590  12.6532747  30.2245376  53.0449958  44.3934325  77.2560815
  52.4465909  45.0605303  77.5545945  52.6112884  44.0695919  76.4494924
  33.1028583  25.0395847  21.1670650  33.3379376  25.3632467  20.2425234
  32.2827294  24.5480154  21.0442903  69.9613197  65.2683702  26.6252062
  69.4113203  64.8959402  25.9243092  69.6177989  66.1635544  26.7354213
  50.9857364  26.1266815  15.8890897  50.6909903  25.6288848  16.7302026
  51.6759782  26.6499140  16.2415316  52.9729670  18.0245795  15.9766032
  53.0264576  18.5320274  15.1400787  53.0590507  17.1320278  15.6886012
  34.9302634  20.4507062  17.3162252  35.7799180  20.2791805  17.7752044
  34.5883569  21.1489484  17.8513587  49.1315090  31.3223891  18.3281934
  48.9960197  30.3723547  18.3823249  49.9631585  31.3351926  17.8166526
  34.5683386  28.4800939  15.8249778  33.7688039  27.9785657  15.6120678
  35.2590790  27.8945325  15.4537726  46.3621103  27.3516204  17.0095905
  46.2113100  26.3883310  17.0670168  46.8446782  27.3999682  16.1309412
  37.9335264  30.6691653   0.3039377  38.1200958  29.8717941   0.9135669
  36.9893889  30.7044740   0.3537604  41.5715591  27.9463125   7.6331996
  41.5692175  28.0083637   6.6739246  42.4516205  28.3412077   7.7695190
  41.3731396  27.6065221   4.7861006  41.5802232  28.5113749   4.4787380
  42.1344596  27.1230459   4.3643649  70.2000021  49.6839701  67.2936814
  70.6940719  49.2265476  68.0364791  69.3700983  49.8009371  67.7329340
  42.0343775  17.5945626   3.9778993  42.3677729  17.8685915   3.1404189
  42.6561383  16.8171066   4.1536855  51.9767764  29.3334246  -1.7525839
  52.3204987  30.1490284  -1.3089085  51.5848086  28.8891460  -0.9745968
  62.0621413  29.0133624  20.0496946  62.7680608  28.6005205  19.4995183
  61.3378639  28.8249411  19.4039026  48.1656467  24.6490562   6.2789327
  48.3132075  25.4581802   6.8030759  48.8767934  24.0831513   6.6925768
  68.5194025  61.1562297  62.7093221  68.7670629  60.7534619  63.6274205
  68.8033354  62.0969529  62.9044041  50.8936128  27.2094208  18.6825367
  50.7330590  27.1171421  19.6757645  50.1090701  27.6861808  18.4020434
  77.2549611  50.2351082  59.6054430  78.0336828  49.5847868  59.3868696
  77.2000638  50.0413214  60.5623057  52.5795990  21.6207940  20.4505260
  53.4762125  21.7652818  20.8534419  52.3273368  22.5238033  20.3154701
  33.8649774  19.9805953  10.0029964  34.3716897  19.3226016  10.4570697
  34.3820923  20.0430424   9.1669474  62.9537732  20.3953984   6.0826468
  61.9630819  20.3264530   6.1882326  63.2272258  19.8949218   6.8694150
  46.3839728  32.8317123  10.4512458  46.1781673  33.7571921  10.4939515
  46.1384778  32.5095306  11.3624624  32.8438249  21.9305410  11.4203832
  31.9557330  21.4997581  11.6042565  33.2794284  21.1134131  10.9967395
  44.3533253  25.4595404   8.1333053  43.4128639  25.2503225   8.3837982
  44.3474578  26.4267028   8.1826329  40.0054911  15.8723832  20.9108590
  39.5693819  15.1339985  21.3761673  40.3226420  16.4034570  21.6157709
  59.9817262  32.7291079  13.5488970  60.9297279  32.5013475  13.3061943
  59.8323323  33.4422427  12.9136647  46.8108282  15.1666797  15.0882453
  46.9052558  15.1856681  14.1356777  47.6271357  14.7984342  15.3840064
  46.9625050  39.3550542  11.9914633  46.7091649  39.5954253  12.8849609
  47.0848850  38.3861529  12.0957495  44.0651985  25.1709334  18.9245280
  45.0247791  25.0728601  19.1715286  43.8307051  25.9187732  19.5332033
  43.2862462  18.1411406  14.2007414  42.8276581  18.8758440  14.7610051
  44.1551363  18.2407354  14.7218271  42.7295611  22.7942645  19.5021858
  43.1619467  23.7087565  19.3542449  43.0343519  22.3909292  18.6565870
  47.0823782  28.1336599  10.5419235  47.3696346  28.0836463   9.6388188
  46.5385969  27.3164384  10.6406902  43.8979608   9.4441651   8.2197753
  42.9398252   9.1329397   8.0291632  44.0409725   8.9390878   8.9928027
  57.5863561  35.1260245  14.1948823  56.6272499  35.0219790  14.4538669
  57.6300686  36.0870477  14.3923837  37.2255186  14.1141990  16.6582917
  36.6611319  14.8523946  16.2865202  36.6520109  13.3504202  16.4893999
  49.2264737  37.9734112  14.0174504  49.6070302  38.0411746  13.1171382
  48.2703679  37.9321776  13.7707110  44.4166293  30.7623997   9.7651481
  43.7298665  31.3691792   9.4057712  45.1788868  31.3715865   9.7335817
  71.8128216  59.2320139  62.6350602  71.8532236  59.5087495  61.6919097
  72.3878068  58.5070803  62.6527303  38.7980341  29.3201458  21.7788800
  38.3795857  29.9472851  22.4235879  39.3818233  28.8808847  22.4898729
  40.0026515  21.4965097  11.1844526  39.1778547  21.7156146  10.6704488
  40.6571712  21.5235989  10.4604001  50.0493035  23.9440099   7.9218323
  50.1457868  23.2901838   8.6312648  51.0006000  24.1934857   7.8203779
  49.7703683  24.3754714   0.4434653  50.5807305  24.9317997   0.6170144
  49.5014068  24.2051322   1.4018383  43.5110412  29.3994097  12.1267289
  43.7704194  28.5092203  12.1843394  43.8930328  29.6814617  11.2723563
  34.5368050  26.1007455  25.1085361  33.8114351  25.5242957  24.7542393
  35.2954724  25.7600518  24.5628012  51.2428974  31.0303351  16.8578235
  51.6923213  30.1528255  16.6924940  50.9954147  31.2044073  15.9443583
  73.2014130  57.0089983  62.6994622  73.5823483  56.7397242  61.8355939
  74.0294023  57.3184163  63.1595640  46.2173972  17.2536984  30.9818559
  46.3973504  17.3597725  31.9521793  46.5050187  16.3095496  30.9044049
  34.9679198  32.8223175   2.4771362  34.9628519  31.8458749   2.4465249
  34.8940282  32.9400019   3.4581277  35.8557393  30.3430392   3.7111564
  36.4388617  30.2574683   4.4474890  36.3483424  29.7067366   3.0663355
  40.1203983  17.6212311  16.4184704  39.7500580  17.6040042  17.3505073
  40.6039903  16.8049929  16.4831709  38.4152163  21.0249641  24.0575914
  38.2266466  20.9829566  25.0545798  37.5333004  20.8514344  23.7223697
  46.4032949  28.4157801  21.6830456  47.2186694  27.9637264  21.5189497
  46.5084298  28.9407631  22.5188067  41.3715821  15.3905634  12.0890634
  40.6135993  15.7520755  11.6292552  41.3914085  14.4632202  11.8549534
  53.4741168  41.0409947  12.0804568  53.5372017  40.2682932  11.5290017
  52.5667098  41.2739056  12.0433095  51.5242693  42.2198629  19.9973514
  51.5468655  43.1914187  19.9954949  52.2154677  41.9716495  19.3829793
  52.9551973  14.3871749  19.0008071  52.8006469  13.4249475  18.7445700
  53.5473813  14.6766546  18.2390760  28.9587132  20.7581489   9.6448275
  29.9194326  20.6876642   9.4503949  28.9613919  21.6913927   9.9460873
  52.3536455  20.5408467  -2.0601353  52.8993193  19.7910295  -1.8786667
  51.5497774  20.4716794  -1.5261538   5.0752125  52.8076248  68.2819216
   5.8608584  53.2125755  68.7683675   5.3165434  51.9062466  68.3978200
  41.1310132   3.1942294  14.5275670  40.8351445   3.8788021  13.8508449
  40.2843559   2.9061202  14.7893404  67.0545091  36.8958523  67.9686562
  67.1815137  36.7166652  67.0096797  67.3905308  37.8076809  68.0098862
  65.3664175  37.6443034   5.5725719  64.6160080  37.3138366   5.0096298
  64.8937348  37.9500697   6.3331817  50.5825660  31.4190559  14.1933137
  51.3219218  31.8797373  13.6382859  49.8676321  32.0438034  13.9552946
  53.0437542  52.0152080  62.2057399  53.6139429  52.4173417  62.8709901
  52.3515776  51.6905811  62.7684643  41.5747536  39.0143746   4.3333576
  40.7396004  38.5743320   3.9615117  42.1511709  38.7453188   3.5829835
  55.0562241  26.0715464  -2.9981841  54.2281353  25.6570460  -3.3115509
  55.4887046  25.2701478  -2.6107236  55.6150900  15.5617775   4.5705574
  56.3366068  15.7074450   5.1477569  55.5120252  14.6127160   4.5592593
  59.7603220  65.6308713  62.2870930  60.5512418  66.1612771  62.4320670
  59.5509580  65.7933866  61.3429528  27.3585415  14.6472086  11.9474450
  27.2669621  14.4412811  10.9986776  26.4753303  14.9282507  12.2055873
  48.3795403  28.0385935   5.8258353  47.5426679  28.4446693   5.7929264
  48.5387790  27.8438489   6.7729390  45.7273001  39.9855293   7.3168789
  46.7031443  40.0215223   7.2942915  45.5194415  40.4494716   6.4743265
  46.4438821  22.1958430   3.4934629  45.8024342  22.8660292   3.8366461
  46.3002048  22.2205920   2.5125325  52.9857875  23.1977039  10.4779164
  52.2315159  22.5839926  10.4486156  53.7759401  22.6070423  10.5088311
  36.4298536  26.5781013   5.9968370  36.0043224  26.5657017   5.1006183
  35.9683901  27.3273705   6.4261034  51.7983371  28.6195914  13.1373711
  50.9054050  28.6118892  13.5604448  51.6629876  27.8389829  12.5537102
  29.7255966  21.4794574  22.2224636  28.8379537  21.5251175  21.9072826
  29.5862625  20.9531517  23.0801698  45.4174690  29.7297939  17.6175314
  45.4583666  30.2464905  16.8083570  45.8316658  28.8919593  17.4237105
  45.1369008  13.8074797  12.0580878  44.7085305  13.4645440  11.2747535
  44.7187166  13.2557733  12.7387467  34.0091869  27.8199229  10.8231161
  33.4031280  27.8467561  10.0730589  33.7044577  26.9620855  11.2308410
  57.3876323  13.5265510  18.8891816  57.1882469  13.4907047  19.8538684
  58.3392820  13.8057586  18.9130029  45.4122205  22.3782801   1.0144589
  44.4028240  22.1170895   0.9895307  45.3020398  23.2426966   0.5015598
  36.1025386  16.5964896   6.6181409  36.1723037  16.8472295   5.6543728
  35.1536946  16.3876319   6.6377647  45.7887184  32.2743480   7.4464585
  46.0842015  32.6805450   8.3084115  44.8256265  32.3698654   7.5888862
  48.3378908  12.1331411  18.3965201  48.8235204  12.3241419  17.5375353
  49.0174820  11.5762111  18.8169035  53.3798492  18.0453876  -0.9285510
  53.1316054  18.0463379   0.0143413  54.2968401  17.6880938  -0.9173459
  45.7485773  15.8858884   8.1170746  44.7750490  15.8258774   8.4935176
  46.1470799  16.3984817   8.7994355  46.4477700  31.7533706  13.1417002
  45.8275749  31.4247607  13.8017548  47.0824363  30.9699153  13.2227728
  46.7314778  30.7979217  20.0898762  46.2264710  30.1182011  20.4846445
  46.5744028  30.7561945  19.1691916  39.2249107  40.5843518  17.5090771
  38.5523325  40.3420891  18.1089020  39.2154954  39.9425270  16.8210803
  58.9047146  23.3390164   7.8283780  58.3185486  23.2391747   8.6544343
  58.7829845  24.3698614   7.7317221  41.6831244  23.2916741  12.9113450
  41.6669573  23.8367258  12.0668416  41.2744049  22.4842832  12.6202864
  50.4581704  10.6951294  17.2621325  51.0103427   9.9157478  17.4349951
  50.7938536  10.9218227  16.3455632  58.0307448  30.7162222  13.9237756
  58.6503937  30.2577475  14.5039610  58.6335991  31.3720425  13.4860633
  44.9277762  14.2170188  18.8373512  45.1257381  13.2644409  18.7769316
  43.9744597  14.1130945  19.0645558  50.7715408  24.1996207  13.9626232
  51.4066632  23.5135251  14.0119052  51.0920465  24.7482713  14.7691820
  43.8023131  34.3291708  10.9894855  43.3576143  33.8529584  11.6870376
  43.0791066  34.6553331  10.4501668  40.9107662  27.9774352   0.5872047
  41.5319537  28.5730601   0.9745627  40.6329180  28.4447902  -0.2222142
  56.5211219  18.4765816  17.3300496  56.5194621  17.5683528  17.7759695
  57.4324713  18.7405408  17.4808610  40.8334477  20.3494255  18.7475941
  39.9129210  20.5396129  18.9604115  41.2492734  21.1892688  18.5890139
  35.8053154  22.1949458   4.3385689  35.6158935  22.9804806   3.7818475
  36.3184655  22.6594199   5.0728980  50.2042277  17.5373460  11.9780898
  49.4434578  17.0826402  11.4651786  50.2601734  16.9258194  12.7689177
  59.7817504   8.5578504  10.9028152  59.2525628   7.7609510  11.2624859
  60.6591989   8.2992755  11.1670606   0.7167266  61.8603864  47.7490905
   1.0507036  61.9358004  48.6667385   1.0155120  62.6373144  47.2766916
  54.4116419  24.1079216  17.3223143  54.0915376  23.2989570  17.7573616
  54.1620402  23.9107881  16.3924720  18.4061739  23.3575755  19.2054697
  18.0369375  23.9676428  19.9141997  17.5728459  23.2462831  18.6980233
  43.4894353  21.2773831  17.4262654  42.8350293  20.8196362  16.8018352
  44.1489635  21.4812394  16.7407837  37.9232979  31.3512659   5.5600390
  38.4442694  30.5850428   5.9031685  37.2233226  31.3680660   6.2670233
  43.4247968  24.1215081  16.5471652  42.5527567  23.7430923  16.7069909
  43.6185856  24.5761289  17.3616958  49.6224231  17.1475031   8.3452838
  49.0309376  16.5288009   7.8712824  49.3385840  18.0051480   8.0020137
  64.0559703  34.4995119  11.5490509  64.0018874  34.0728264  12.4129017
  64.8833362  35.0624644  11.7014736  47.6440460  29.1098022  12.9130984
  47.9092678  28.2404110  13.2993547  47.2284360  28.7424550  12.0470344
  53.2258408  21.9377669   6.4705527  52.5525626  21.6566466   5.7688772
  52.6509603  22.4858604   7.0424101  55.9370976  49.3090392  68.7010621
  56.4197346  49.3496067  67.8586424  55.4160360  50.1234010  68.6878864
  60.1091254  28.0775069   4.8232697  59.2958391  28.2104489   4.3639467
  60.2220660  28.9285135   5.2912616  48.1219624  21.9361274  16.1748886
  47.3836844  21.7632207  16.7865139  48.2003019  21.0097085  15.8112769
  67.6583691  32.3012282  10.9093841  68.4058585  32.1880174  10.2826179
  68.1165285  31.9793078  11.7390696  49.8877478  23.5597391  17.4687270
  49.2961806  22.9429131  17.0041312  50.6798862  23.0077432  17.5482690
  38.9526723  14.0932410  25.4057874  38.1770729  13.7619739  24.9372057
  39.2001482  14.8370820  24.8490315  55.5256935  25.8226681  10.6113798
  55.6439673  26.7680436  10.7310288  54.6700159  25.9331678  10.0659940
  45.4977522  23.3168065   9.1936675  45.0105965  24.0780132   8.8241129
  45.9574224  23.6857731   9.9559736  37.0190553  31.6685318  14.8015873
  36.5497344  31.3567229  15.5756262  37.8643768  31.2297657  14.8816223
  30.6211628  31.3743343  13.7245738  30.6361328  32.0484562  12.9817923
  30.3497665  30.6076654  13.1840177  38.1371983  29.7605570   9.4640816
  37.2209159  30.0100855   9.6421697  38.2105223  29.9701956   8.5147586
  40.3818482  20.2748379  13.5586964  40.0179000  20.5559087  12.6940931
  41.1038200  19.6273319  13.2401777  37.4974026  15.0590883  19.0795381
  36.7877063  14.7764480  19.6869136  37.3155175  14.6355440  18.2589853
  41.0164736  27.5893150  10.4356220  41.3594327  28.3367872  10.9601632
  41.0827763  27.8508107   9.5470232  44.2280654  33.3825969  16.7434416
  44.5814246  33.7433247  15.8829912  44.7613568  33.8395186  17.3940708
  36.7962171  25.5071128  10.1472117  35.9390110  25.8361778   9.8107673
  37.1111403  26.2987143  10.5967100  54.9493677  20.9021144   8.0736595
  54.7350654  19.9965862   7.7113887  54.2862010  21.4391157   7.5706353
  47.5758340  11.1770801  15.1078752  47.3600873  10.3052382  15.4709242
  47.6385108  10.9812595  14.1544261  46.3001020  25.3432906  11.7942101
  46.4312693  25.1900038  12.7428804  45.3793921  25.7346627  11.7550425
  48.9167560  22.4368470  13.3671600  49.4867403  23.2760484  13.4082404
  48.7217617  22.3585911  14.3295335  66.5317232  55.2709456  65.8135384
  67.4227377  55.4873478  66.1900379  66.5214911  55.7784763  64.9813136
  53.7496673  30.3375342  13.5313385  52.8911834  29.8578552  13.5811971
  53.3393183  31.1713614  13.1645536  56.4508378  17.4314778  11.6174678
  57.0353194  18.0648801  11.1241456  55.6168709  17.4750362  11.0757685
  44.8985929  12.7057321  14.7135285  45.6028022  12.1731271  15.0754321
  45.2411128  13.5904912  14.9884634  45.1467900  18.5827819   3.3740694
  45.3877096  18.6588371   2.4160553  45.5780278  17.7006182   3.5272509
  46.3788782  18.7274222  18.8777646  46.3714981  18.0019136  19.5244100
  45.9944839  18.2427253  18.1166940  49.8947709  20.3626338  -1.0539034
  50.1700741  19.6832284  -0.3759635  49.0248223  20.6187332  -0.5615817
  62.2824841  57.5796063  67.5604421  62.3461360  58.2222847  68.3121297
  62.3409314  58.1769659  66.7817782  43.5004700  16.9340599  20.8423104
  43.2815606  17.7892668  20.3719233  43.0900846  16.3042258  20.2029281
  48.8389886  27.2114834   8.5354940  49.7829750  27.4946562   8.6235545
  48.8290409  26.4412276   9.1104180  40.5430733  23.4650613  16.9770338
  40.4901991  24.0330541  16.1626579  40.1013687  22.6395744  16.6409026
  41.7733217  17.1147432   7.1478940  42.5644722  17.0517523   6.5052047
  41.1984393  16.4260867   6.8173412  52.0866473  19.2586314  11.7641847
  52.0784842  19.4979026  10.8480343  51.2658795  18.6839554  11.7430142
  79.4062058  61.9407632  57.9954905  79.8694741  62.4315491  58.7426637
  78.5761288  62.4866107  58.0114813  64.5169920  35.8164084  -1.0611020
  64.3265344  34.9727530  -0.6349902  65.4549329  35.6686317  -1.3287761
  29.5422443  20.3232091  24.7193244  29.0023241  19.5500447  24.5873658
  29.7345909  20.3212673  25.7066370  55.4216018  33.1638517   1.7273974
  55.4293390  34.1438214   1.7886460  54.6589138  33.0688800   2.3600553
  37.9658812  34.0715033  14.3657400  37.4977733  33.2253352  14.4768424
  38.4341532  33.8231351  13.5295046  45.9271339  29.6516433   5.9620679
  45.7819821  30.5966880   6.3308920  45.7411733  29.8652317   5.0172663
  57.9386790  52.0161043  73.1767691  58.0951651  52.6271092  72.4902575
  58.8249087  51.7409623  73.4535026  53.2671431  34.5751428  19.7351137
  54.1569416  34.7914355  19.3414302  52.9318029  33.8356499  19.1910219
  45.8242003  34.7554117  18.3812099  45.5524288  35.1592312  19.2532468
  46.7012414  34.3849536  18.6282105  49.0980296  17.2594587  15.9112143
  48.4719384  17.4238806  15.1768811  49.1304396  18.1737138  16.2846253
  36.0959650  22.7410449  13.9317381  36.7083902  22.6895528  14.7649736
  35.7991041  21.7679249  13.9358763  48.0386487  40.8614928  18.3345038
  48.1870869  39.9670238  18.6960336  47.3527951  41.1494966  19.0006834
  25.6727419  24.0142154  21.4864850  25.9302673  23.0448401  21.3408207
  25.0034816  23.9051348  22.1747538  61.4006243  26.3951787  18.4238443
  60.7146663  27.0706440  18.2758425  62.2146425  26.8081497  18.1449457
  45.9818782  22.5233721  18.2227510  45.1477671  22.3603499  17.7655540
  45.8369023  22.1621603  19.0684706  67.8901258  70.6272880  56.6967954
  67.5705532  71.1569087  57.4455891  68.1738152  69.8242115  57.1142818
  48.9177491  13.2585602  15.7642792  48.1632846  12.6401631  15.4628701
  49.4774060  13.1342073  14.9422148  40.7081334  31.8393118  -3.2610258
  40.7338034  31.4496176  -4.1679243  41.0677247  32.7717500  -3.5561400
  43.9961796  16.2732051   5.7038872  44.0566636  15.2888102   5.6070784
  44.8011962  16.5569334   6.0707737  27.8059855  47.0956864   2.2168451
  27.5452455  46.5263926   1.4637378  27.3316603  46.5320516   2.9476506
  45.3927146  17.9529749  12.3375356  44.8207447  17.9979843  13.0968842
  44.8908640  18.3771038  11.6312681  48.9491975  19.2992131  17.9026003
  49.3805546  19.8090637  18.6124510  47.9925975  19.4316697  18.2221014
  62.8529474  32.1123331   6.8836276  62.8715868  31.9998246   7.8233711
  63.3765910  32.9026974   6.7292065  43.9988738  32.9007422   2.7798575
  44.0806792  33.6536376   3.3310342  43.3318055  33.1107065   2.1401401
  64.0255988  33.6185912  14.9084150  64.1316185  34.5698763  14.9827582
  64.9314218  33.3557625  14.6535056  48.8241970  12.9192969   9.4307883
  48.1813220  12.2801916   9.8220059  48.7060319  12.8320389   8.4745352
  51.0073129  15.9565950  14.2191455  51.4232793  15.3019911  14.8179209
  50.4847728  16.4944304  14.8482887  45.7678332   7.4328524   7.6586074
  44.7927064   7.4812774   7.8785519  45.7890144   8.4060317   7.3130995
  57.2615769  19.2722056   5.6260282  56.4960136  19.7848600   5.2307828
  57.9291200  20.0093955   5.6235044  48.8142323  15.2360844   6.5517368
  49.2886005  14.3741343   6.4185236  47.9128556  14.9777373   6.7377068
  30.4279484  23.4974173  20.5785133  30.6017831  22.7591930  21.2035974
  29.7795044  23.9977778  21.1188432  39.8086052  23.5599323  23.6498167
  40.4053722  23.0584036  22.9965740  39.2266593  22.8236348  23.9759422
  43.8098793  18.8184030  10.3926406  42.8591096  18.7025345  10.1256366
  44.2230269  18.8156174   9.5157258  44.5628804   9.3281447  14.1027262
  44.9096023   8.8184603  14.8809396  43.9766931   9.9479195  14.5808032
  41.7520603  22.3535159  22.2362994  42.2218566  22.4911851  21.3498828
  41.4456402  21.4197136  22.0783574  43.8388003  19.4136416   5.9965044
  43.9275664  20.4078572   5.9057018  44.3978192  19.1959850   5.2005603
  30.0889934  24.5361156   6.8910262  29.1999655  24.2345277   7.1544507
  30.0444519  25.4589851   7.2138450  54.5494061  14.6709627  10.1320841
  53.7582933  14.6434287  10.7283280  54.5050382  15.6190194   9.8629336
  47.2109863  15.7802365  12.5114157  46.5774461  15.1078644  12.2530210
  46.6438466  16.6037814  12.4428187  40.9984271  25.1598304  14.8494534
  40.3088915  25.6937155  14.3691902  41.0746442  24.4467386  14.1790107
  47.8224906  34.2655548  13.2538270  47.5035406  33.3714720  13.3623572
  48.5853729  34.1037511  12.6240442  40.3322353  31.6790616  25.2077739
  41.0073921  32.4121173  25.1765653  39.7827239  32.0607106  25.9409027
  64.8533002  19.5522417  11.8728277  64.7099224  19.1546319  10.9935904
  65.3704924  18.8777082  12.3352502   0.4910999  51.6728672  56.6288693
  -0.1074853  51.3003207  57.3110110   0.1042698  52.5640069  56.4509764
  48.9810637  21.7420106   4.2871331  47.9647942  21.6704452   4.1638489
  49.1160818  22.5172677   3.7095448  41.4767661  22.0581983   7.1879620
  40.8514635  22.7875233   6.8724035  41.1175685  21.2944891   6.7478027
  58.8173642  26.2797028  15.4862453  58.2153494  27.0194929  15.7769794
  58.2786714  25.9750713  14.7180120  54.4112503  13.3513254   7.6479605
  54.4027875  13.8842771   8.5436493  54.9719280  12.6076167   8.0485180
  61.6508643  18.6153742  17.5957804  61.5420326  18.4227221  16.6345095
  62.4131752  17.9450088  17.6792844  34.6355840  28.3544426   6.9973716
  34.0705144  28.7080698   6.2628772  34.0238380  27.7362402   7.4030417
  60.0851914  14.0221324  17.6147205  59.2427287  14.2993084  17.1655385
  60.2433761  14.8730348  18.1524294  34.5639294  32.3191361  14.0019464
  34.2604678  32.1262340  13.0546119  35.4712477  32.0658177  13.9680788
  71.4346867  48.0930834  69.6130245  71.8470694  47.5213905  68.9247632
  70.5172688  47.8952506  69.5173970  45.0476393  20.7580816  20.3260731
  44.2911603  20.2838424  19.8934728  45.7954919  20.2327758  19.9839021
  43.4396958  29.4251398  19.6193536  44.0268982  29.5044484  18.7911985
  42.6189656  29.3890623  19.0742637  46.2596363  11.8956140  21.0238655
  47.2226440  12.0411805  20.7171187  46.1637358  12.7513063  21.5222791
  35.1992238  13.8797723  31.5346265  35.2790829  12.9628555  31.2334773
  34.3723910  14.1877635  31.1029037  53.5091835  46.9923256  15.7277777
  53.7404264  47.8916500  15.3631036  53.8253034  46.4738710  14.8975702
  53.0717186  33.8171293   8.1333298  53.6273307  34.5578042   7.9446246
  52.1859906  34.1390176   7.7895664  50.6080194  32.2699706   1.5139719
  49.7315720  32.4828375   1.3022601  50.8225477  31.5067804   1.0186106
  45.9083546  34.9228407  15.1917987  46.6886321  34.8248701  15.7277626
  46.3037635  34.6595793  14.3107163  47.9237993  35.8396479   1.0468672
  48.3144864  36.6860378   1.0321875  46.9433791  36.0509364   1.0352690
  58.0629273  44.1212521  11.7491631  58.9306229  44.2009160  11.2714187
  57.4730931  44.3874477  11.0159136  54.9451444  46.9574838  11.2306257
  53.9843518  46.9086206  11.2588301  55.1365633  46.5059983  12.0779703
  46.9139796  50.0050545  15.9638108  46.5216709  49.1326782  15.6108206
  46.1480173  50.4451909  16.3133765  46.1895122  42.0091593  20.2295227
  45.5079288  42.6647759  20.6851578  46.9664114  42.5497446  20.2639172
  58.9479919  38.3579312  -0.4694300  59.8852974  38.1524479  -0.7671523
  58.4746804  37.6344744  -0.9746863  55.6389294  28.5067616  12.1010360
  55.5213313  29.4821901  12.0175863  54.8956622  28.3464493  12.7113484
  66.8365247  45.6746502  23.6251094  67.3749529  45.9537486  22.9046341
  66.7184920  44.7068557  23.4781804  57.8693118  27.9194635   6.6208279
  58.1634799  27.8035109   5.7099425  57.9932321  28.8869234   6.7089171
  47.2436591  36.8871346  12.3301057  47.7811709  36.0904490  12.6261861
  46.6745391  36.4587797  11.6653122  54.1421248  36.3165782   7.7360498
  54.6201857  37.1920197   7.9289335  53.4169047  36.7041934   7.1622327
  52.5259367  32.7806641  13.0680531  53.4143127  33.1824048  13.1532827
  52.3442605  32.9457279  12.1057763   2.1007940  64.5422917  57.3379898
   1.4870432  65.1545388  57.8237569   1.5401124  64.3244676  56.6126995
  66.2790622  42.6899735  22.7125683  65.6446945  43.1081011  22.0379051
  65.6588659  42.4339996  23.4121745  45.7930137  35.9112356  10.2297954
  45.2628694  36.7118878  10.0868460  44.9368615  35.3090730  10.4546168
  57.1955716  31.0027350   2.5631131  56.4737605  31.4182141   2.0481737
  57.6828472  30.5442750   1.8502952  50.5774779  38.3707246   2.6280162
  50.7362192  38.9410005   3.4026207  51.4391458  38.4721506   2.1768537
  55.9565762  30.2561457   9.0907289  56.7782586  30.0069161   9.5461768
  56.2301269  30.9575516   8.4920395  45.8412123  41.7491453  10.5725861
  46.0169192  42.0447705  11.5107665  46.7506778  41.4905099  10.3601899
  69.0113871  32.7463446  27.3406955  69.7719292  32.1810453  27.5244809
  68.3743843  32.0167469  27.0685476  53.0205375  37.3908838  13.4900913
  52.6889786  37.8547059  14.2226811  52.6103031  36.4889736  13.6790513
  53.1723557  39.7654235   8.4335376  52.4007462  40.4182244   8.5660332
  52.7890471  39.0133826   8.8686630  47.6507947  37.8602517  19.8668589
  48.2774107  37.2242361  19.4586968  47.7971081  37.7597814  20.7930060
  60.7935263  32.0123977  23.9432132  61.5475387  32.5099275  23.6200817
  60.6161879  31.4603995  23.1570475  59.4312001  38.4903274  16.9227672
  59.5077752  39.4470601  17.3820707  59.8991404  37.9936883  17.5636273
  61.8297921  41.7870283   9.4903533  62.8159480  41.8022108   9.6978506
  61.4756191  41.6258485  10.3983837  57.4495831  42.1730798  19.7991376
  57.3342050  42.1534955  20.7082487  56.6046518  41.9048442  19.4067898
  72.8459159  35.6290187  12.9413973  72.6058967  36.2516957  12.2454937
  73.2530291  36.2377855  13.5564897  58.5660330  43.4756994   8.2343212
  58.6033249  42.5231148   8.2823653  59.5516874  43.6610130   8.3012954
  52.0518216  32.7019464  10.3397746  52.5066823  33.2321714   9.6262338
  52.3198700  31.8011738  10.0088964  42.0682354  47.7755933   4.3196999
  42.6890600  47.1680461   3.8830323  42.5954718  48.5712545   4.4303063
  55.4909580  44.1469765  10.1153589  55.9499633  43.3008224   9.8810045
  55.2672297  43.9598918  11.0200141  60.5678192  38.4993582  10.3488851
  61.1420710  38.1074221  11.0631801  60.5389189  39.4582836  10.6149765
  45.3307251  39.0789627  20.1798850  46.1470759  38.6596418  19.8383327
  45.5864276  39.9995193  20.2205082  41.8183678  32.5290601  12.8521334
  40.8445143  32.5323560  12.6129069  41.9261809  31.5406811  12.6607542
  59.7460900  41.7149885  15.2979080  59.2004778  41.7475062  14.5101901
  59.1621994  42.1433046  15.9442230  49.5762183  33.2653352  11.2888908
  49.0783681  32.4535502  11.2791487  50.3676033  33.0459721  10.8210519
  51.4695587  39.6254011  20.9421837  51.3251079  40.5910876  20.7841193
  51.1830144  39.2940978  20.0616633  44.8313542  31.0217005  15.3209296
  43.9781004  30.5440068  15.0896787  44.4145964  31.7950517  15.7979689
   0.8749012  44.2850462  13.1761575   1.4881372  44.0788984  12.5120003
   0.3954336  43.4176823  13.2734509  53.7157343  50.7779755  11.0718267
  54.1081477  50.2668164  10.3021047  53.8288359  51.7014150  10.6610623
  45.2474373  35.2369508   1.1376274  45.1737958  34.3252455   0.9921213
  44.3642437  35.6084250   0.9356901  58.2193462  45.7782873  13.7454143
  58.1045126  45.1185338  12.9959154  59.1289708  45.6173337  13.9573254
  41.0037768  39.3660658  11.5343691  40.8547818  38.4266112  11.5859991
  41.4510718  39.5421768  12.3710908  59.3701077  34.8283475  12.0623780
  58.8494514  35.0866249  12.8959240  59.3390688  35.7355294  11.6730932
  62.0150394  32.9869239  16.8838659  61.3023781  33.5875155  16.6481723
  62.6849519  33.2383215  16.2374198  48.4065610  54.2501775  20.9460125
  48.4014576  54.4264033  21.8885935  48.1191578  55.0549644  20.5774204
  58.0204178  41.8193658  13.2117248  57.1150168  41.5989420  13.4631647
  57.8923297  42.6601910  12.7581559  45.4308319  30.2992993   3.4242903
  46.3288897  30.6641375   3.3510630  44.8919051  31.0127236   3.1208199
  45.0402243  43.4714784  16.7204989  44.0553386  43.5440481  16.6420977
  45.1293087  43.9398855  17.5892352  52.5566057  34.1694551   0.7339731
  52.8437129  33.2511756   0.7695597  51.8052559  34.1168849   1.3338891
  48.8405177  40.1042786   5.3208188  48.0590838  39.8767799   4.7480518
  49.4326294  40.5793264   4.7216053  53.7772273  29.2105300   1.4327540
  53.6444072  29.7387003   2.2143711  52.8640762  29.0032780   1.1080853
  55.2942375  43.5551891  18.1368158  55.0386197  44.0695783  18.9369642
  55.4453783  44.3512156  17.5495868  67.2836115  38.4679127  12.8295255
  67.2402287  37.9408597  13.6703778  68.0606682  38.0588814  12.4358576
  24.6532894   5.9959116  54.1701118  23.9518223   5.4551713  53.7747559
  24.2825519   6.8799093  53.9406512  33.8294159  10.1911367  54.9928390
  33.0684052  10.4116150  55.6516196  33.5887309   9.2655492  54.8076182
  73.6706210  35.1558378   7.8167077  73.9221164  34.2717572   7.5617678
  74.2282100  35.7152371   7.2015062  39.3929426  37.8855039   3.3550369
  38.9082057  37.1977357   3.8271579  38.6492477  38.3773292   2.9871154
  60.5076974  40.7886400  11.8285131  59.6589558  40.8457119  12.2794122
  61.0242442  41.4928574  12.2928134  44.7460637  39.0197937   4.5919388
  43.9201364  38.8708275   5.0607703  45.0823439  38.0647262   4.5605588
  54.6689105  34.4864678  13.1633719  55.5496685  34.6758792  12.7892046
  54.1282902  34.9717953  12.5371044  45.4902690  45.5142766  18.4502009
  45.4458355  45.6420992  19.3809978  46.4713051  45.5150887  18.3178374
  49.0792243  46.1656735  10.1790343  48.9026801  46.9721802   9.6524229
  50.0257447  46.3598594  10.3690196  60.7870669  50.3696633  19.3159849
  59.9877443  50.4065678  18.8234198  61.1695391  49.5101744  18.9711453
  37.1094985  47.7998239  15.3782886  36.8307532  46.9723928  14.9354159
  36.9514546  47.4789619  16.3302550   2.9534217  68.5260698  55.2557101
   2.5798968  67.9093113  54.5403578   3.5936955  67.8096098  55.6047191
  76.8215553  37.4844151  12.4597160  77.7788649  37.2767160  12.1114259
  76.6319286  36.6298504  12.8424126  55.2480230  21.0120382   4.7965280
  55.6636179  21.8912546   4.6772444  54.4671316  21.2667872   5.3567691
  52.7933952  37.9931520  10.8449842  52.9000902  37.7448298  11.7469072
  51.8162325  37.9879603  10.7747502  58.6435492  26.4349208  10.4872132
  59.4670071  26.3455343  10.9661801  58.3315973  25.5337476  10.5529840
  39.0111148  40.7731527  13.9398051  39.7922897  40.2450915  13.9283247
  39.3191031  41.6363197  13.7499796  48.3555886  42.7353828  12.6600395
  47.5520527  42.5594661  13.2227280  48.3833404  43.7173608  12.8646969
  36.5186554  11.1727928  68.5241105  35.6592813  10.8001499  68.6954083
  36.6877706  10.9671524  67.5859840  44.2727368  28.5088689   8.0097921
  44.2425164  29.0601827   8.7910640  44.6348523  29.0970496   7.3451238
  51.0182742  48.6209883  13.5433683  51.1558241  48.9540005  14.4725926
  51.0797776  47.7284570  13.6487728  61.4902887  42.2163742  18.2365500
  62.3637109  42.5206795  18.6778646  61.0904046  43.0518814  17.9785586
  55.6213539  38.8830587   7.8656998  55.6823317  38.6454571   6.9156571
  54.8637654  39.4017575   7.9284361  42.6728334  29.8356625  14.5697710
  42.3975951  28.8872472  14.5258031  43.0953473  29.9283663  13.6925438
  63.4586935  50.7522608  14.6390913  63.4075260  50.3979482  15.5732373
  62.5631476  51.1612311  14.6419530  43.7115493  40.5648969  18.0474151
  43.7953477  40.1278870  18.9110782  42.9615484  41.1691396  18.2188421
  49.1887174  47.1236945   6.8767246  48.6185755  47.8236476   7.2011052
  48.4590285  46.4022111   6.7579830  48.1825377  33.8549164  19.2730514
  48.6084747  32.9871330  19.0336402  48.9726489  34.4050052  19.3569363
  40.5430984  35.7220534   6.3367599  40.4484343  35.0302796   6.9963862
  39.7378334  35.5578674   5.7601587  42.2065321  36.2785648  20.4772048
  42.3392435  36.2192328  19.4729857  41.6222933  37.0590361  20.4853382
  59.3547908  48.3355263  13.2371010  58.7901861  47.8516819  12.5937597
  59.0936423  47.9397756  14.0681030  64.1864133  38.2998535  18.6411122
  63.3749723  38.2974471  19.2309331  64.6347383  37.4948027  19.0321415
  51.0301946  40.8623399   4.1280856  51.2963617  41.3259222   3.3320040
  51.9350310  40.7456080   4.5588431  49.0479421  35.7566352   9.8900779
  49.0868574  34.9333211  10.3237721  48.4413779  35.6378558   9.1399355
  46.3318935  48.6111738  19.4255422  45.5071379  48.3588306  18.8979730
  46.1033571  48.2883517  20.2763323  21.2306169  17.7491720  62.4939343
  21.0350465  17.7760638  63.4420931  21.0093613  16.8573494  62.2642185
  56.6350810  44.3291330   3.4162627  56.8960455  44.3179794   4.4015807
  56.0901459  43.5450224   3.4145701  50.0929260  26.9047806   4.1164586
  49.4560768  27.3432707   4.7285730  50.8776592  26.9562380   4.7358117
  36.7106157   4.5038817  61.6594432  37.0921472   3.6455870  61.3465028
  37.4825297   5.0985990  61.4831384  57.0135669  27.9356957  16.5083475
  56.4455060  27.3629918  17.0802122  56.2951050  28.3423547  15.9783847
  54.5413164  44.5520951   6.1767186  55.4659285  44.2473944   5.8564482
  54.2884898  43.6971399   6.5518589  43.4824853  37.7483817  13.1212018
  43.0894358  36.8739786  13.2280121  44.2694774  37.7370598  13.6900675
  52.7708228  46.4467121   5.8854713  53.4020897  45.6518883   5.8836326
  52.0774359  46.0627934   5.3330787  33.5740714  34.7373936  -1.9839503
  34.1032889  34.2856282  -1.2483698  34.2270725  35.3989605  -2.2382611
  56.0181422  45.9419407  16.7776127  55.1359440  46.3200381  16.9205448
  56.1018657  45.9367671  15.8350874  48.3611533  28.4812108  18.4273265
  48.2248011  27.8610825  19.1955546  47.4441667  28.3426726  18.0277281
  63.6177126  41.4365937  16.8225601  62.8027185  41.0158104  16.5151357
  63.3247969  41.7613335  17.6902780  38.1691898  10.6133747  61.7553413
  38.5834720   9.9078422  62.2247247  37.8837672  11.2218307  62.5085155
  58.3218643  30.4495117   6.7443462  58.5108147  31.2836263   7.2233750
  57.9856658  30.8165406   5.9053126  63.1775642  37.2580469   0.8198030
  62.3043441  36.7497793   0.7888525  63.5972675  36.8367428   0.0465198
  66.1841020  29.1616946  22.0864163  66.4212313  29.7826376  22.8033710
  65.4105923  29.6889976  21.7081863  58.4699760  37.0811168   2.0257108
  59.1895989  37.2760554   2.7178452  58.8196577  37.7494036   1.3501286
  60.4965909  40.8724138   6.8505133  61.0300394  40.1002758   6.5622206
  61.0361205  41.1467540   7.6399900  39.8252349   7.6665266  67.9113613
  39.9608118   8.5442624  68.3017473  38.8413819   7.7342134  67.6912227
  56.1125810  40.9691246  22.4431872  55.6279433  40.1772283  22.1947960
  55.3710469  41.6429022  22.4844489  60.4439453  38.2404619   3.5668683
  60.8094541  39.1338986   3.3469341  60.4971647  38.2912207   4.5509215
  54.0195410  38.8863592  22.0225963  53.1931859  38.9739713  21.6167860
  53.9595510  38.1018767  22.5736486  59.4541060  35.3610631  18.6624171
  59.5049783  34.3856829  18.9991560  59.4349100  35.1756175  17.7019043
  53.3684139  40.8246150   5.5052239  53.8694716  39.9602667   5.4900424
  53.3803925  40.9748985   6.4343877  47.9315738  43.9004539   4.7348734
  47.6259987  44.5047576   5.4389538  48.2389163  44.5247612   4.1082224
  61.4229613  35.2680726  22.0871131  61.7877803  34.3787767  22.3379766
  61.1652716  35.5449388  23.0063203  54.1244253  33.8544624  15.9704129
  54.7207016  34.6460070  16.0076203  54.3193220  33.6333726  15.0244276
  48.5258379  46.7605926  15.0284155  48.4852028  46.3032061  14.1503991
  49.5027735  46.5731284  15.2274743  53.6132145  51.3256391  16.5310121
  53.7049793  51.7578354  15.6239628  52.8229829  50.7927122  16.4472669
  52.3427873  35.5529040  22.0576091  52.6992998  35.2843445  21.1755465
  53.2445670  35.9050853  22.4273052  58.6474792  43.1922428  17.2669062
  57.9818820  42.9178243  17.9214043  58.9164182  44.0442636  17.5840042
  45.5992406  27.4607936   2.3352283  46.4956983  27.5341777   2.6646727
  45.1987187  28.3189777   2.4459762  71.3949918  33.8484481   9.5513832
  72.1912576  34.3418270   9.3570828  71.1563413  33.4906077   8.6090534
  53.6872308  39.6541037  15.4308465  53.6842442  39.3431396  16.3948297
  52.8080965  40.0476655  15.4344596  38.8242872   8.0880734  63.0601272
  37.8868189   7.8371418  62.9291332  39.0882479   7.7633441  62.1438554
  50.9039861  34.7753157   7.3284649  50.5015137  34.5113695   6.4662331
  50.4684196  35.6474575   7.4188977  52.3036005  53.8379741  19.9220376
  52.9684627  53.3483748  19.4790607  51.5906421  53.1701962  19.9939857
  48.8163261  42.7662368  20.5118919  49.6961172  42.4420977  20.1520807
  49.0707379  42.8775186  21.4350623  62.6618554  35.7566779   6.2503104
  63.5530741  35.4780999   6.5190315  62.1296987  34.9937380   6.6584587
  49.4022516  41.8892706  16.0345485  48.7755792  42.6270163  15.9539804
  49.0469169  41.4249355  16.8278315  67.7548948  37.0160179  14.8137795
  67.6895178  37.4675139  15.7521349  68.5513880  36.4925877  14.9751767
  48.4700058  26.7789950  14.0214221  49.2141728  26.2927121  14.4416271
  47.7098218  26.1607684  14.1705697  59.4259996  42.7410883   1.6246203
  59.1439734  43.0740427   2.4639525  58.7687552  42.0022916   1.5071919
  40.7456346  32.7828593   5.6250019  39.8647682  32.3688422   5.4271785
  40.5136827  33.0913641   6.5779571  58.7611451  37.7838755  12.2675802
  59.5505962  37.8787976  11.7056837  58.0238679  38.1196026  11.7848586
  31.5409246  22.1214847   6.9797116  30.8816311  21.8802517   6.3352600
  31.2857832  23.0568857   7.1753365  32.9392830  10.3676908  65.6919384
  32.1192599  10.8901670  65.5027829  32.5590072   9.8277877  66.4129241
  42.1858486  43.7380154  20.4589492  41.4140960  43.3933751  20.9881598
  42.0565178  43.1580978  19.6971061  54.1667956  35.7981884  10.7023159
  54.2182628  35.5833540   9.7418245  53.7914618  36.7176819  10.6399570
  55.7312244  29.7596101  15.0566663  56.5502389  30.0962620  14.5761640
  55.0453118  29.9461103  14.3760222  65.3022105  45.3441007  10.3564078
  65.8471120  44.5276769  10.5915990  66.0226139  45.9381903  10.0806998
  71.0694128  39.6084970  10.5397093  70.6211550  39.7249570  11.3974280
  70.6550997  40.3503537  10.0436373  42.0252995  32.6103205  17.7838383
  41.6007757  32.0642942  17.0947194  42.7589226  32.9395240  17.2381908
  51.5558539  47.6274926   8.0876547  52.0495529  47.1102989   7.4251206
  50.6379776  47.6364865   7.6839169  60.1653875  47.7417498   9.0970434
  60.0374548  47.1676983   9.8721988  59.4409665  47.4051406   8.5395942
  60.0387997  47.3710464  15.8787621  60.5896442  47.3111832  16.6731354
  60.1824419  46.5115500  15.4501110  47.1096131  45.3992453   6.7108096
  46.2271192  45.8857244   6.8903998  46.9188991  44.5948711   7.1986038
  55.9775042  37.8323570  12.6540572  55.0575033  37.4830200  12.5829857
  55.9470934  38.1862865  13.5706511  53.9779934  48.7309498   4.8411584
  53.5087644  47.9324548   5.0988115  53.7116474  49.3583817   5.5179738
  72.2399769  45.1116971  16.4897134  72.2313458  46.0707622  16.2093328
  73.1528994  44.8501082  16.1097807  66.5424465  39.3958916  22.6839714
  67.0384550  39.1704050  21.9179557  66.5129934  40.3334485  22.7911791
  50.8738635  40.8868113   9.1523757  50.2067085  40.4014792   9.6954002
  50.2494516  41.5247071   8.7223721  53.3743060  41.6927473  18.1887029
  54.0031468  42.3582157  17.8019035  53.9993218  41.0344684  18.4484118
  54.0401704  50.2109051  21.8004120  53.7984817  50.4070555  22.7006326
  53.1528789  50.0960518  21.3470285  74.6860874  44.7244395  15.4045232
  75.0595233  43.8908813  14.9274618  75.4903791  45.0004891  15.8556581
  40.2899816   5.2320980  65.1072181  40.1233434   4.6040442  65.8161622
  39.4423775   5.6922926  65.1000087  68.6567326  40.4222765  15.0294323
  68.1160123  39.5960598  14.9099741  69.3161095  40.0786791  15.6725711
  44.7519145  41.4149741   2.8991840  44.9299895  40.6343650   3.4978867
  45.6841123  41.7480311   2.7853828  50.9139315  26.3559405  11.9414719
  50.0034960  26.2370013  11.5203801  50.8579308  25.5736488  12.5346582
  35.6117576  36.4697016  -3.1293499  35.1610189  37.0708292  -2.4813134
  36.4824144  36.3598216  -2.8369448  69.4520119  44.2863449  25.3684885
  68.5750313  44.3266895  25.8061284  69.5914355  43.3181966  25.3917374
  31.6663507  10.6318771  61.7838888  32.4762420  11.2256672  61.7487271
  32.0773653   9.7785535  61.9180695  69.3149678  31.7843646  12.8853745
  69.9329380  32.4422690  12.4601472  69.5599470  31.9644155  13.8364877
  48.8471293  25.4353235  10.7051708  48.8326229  24.4784500  10.5219391
  47.9487259  25.4740766  11.1187835  35.0772939  10.7845068  64.2639531
  34.8480759  10.5581347  63.3875189  34.1815309  10.7030484  64.7277105
  29.5907740  16.6769689  69.3594018  29.1397534  17.2022613  68.6361075
  28.8140256  16.1086335  69.6210702  69.1031125  31.0701867  19.3396734
  69.1872424  31.0491956  20.3480293  69.5047215  31.9706384  19.2084433
  61.1699960  43.8897074   7.9700219  62.0842327  44.1661621   7.7568236
  61.3536402  43.0494836   8.4275427  76.6040975  38.1572520  21.3860558
  77.2567787  38.2092670  22.0879967  75.9076121  38.6821923  21.8031690
  62.0592958  35.5772306   9.8097010  62.7638995  35.3104652  10.4853624
  61.9032850  36.4551293  10.1390660  20.9036449  69.3153820  67.6931875
  21.0755001  70.2438265  67.8672920  21.6988618  68.9928821  67.2191239
  48.8853288  47.9784029  18.8824224  47.9615457  48.2775439  19.0235246
  48.8021123  47.0307971  18.9294150  51.3810543  44.9349761  21.3834621
  50.5485609  44.4617035  21.7685627  51.8345945  45.1407979  22.2069824
  52.2230096  27.3846280   5.7915345  52.7894119  26.7101491   6.1547655
  52.0463483  27.9355200   6.5831431  58.6714589  41.6077596  23.0885495
  59.0869980  41.0801569  22.3991656  57.7521963  41.6384408  22.7285415
  59.0829638  29.4207734  16.7071323  58.1848365  29.0503318  16.4737539
  58.7620334  30.3034146  16.9658601  61.9904403  37.2797568  12.1109628
  61.8105654  36.7823885  12.9547549  62.7569097  37.7934899  12.3937973
  41.3384276  40.8630348  -6.9560694  40.6402877  41.3861966  -7.4571272
  40.8014586  40.5067227  -6.2097848  40.1546370  30.3662407  11.1319410
  40.8084996  30.7132498  10.5009935  39.4818915  29.8875040  10.6212346
  52.9696675  32.5707130  17.9662520  52.5096249  31.8617852  17.4602316
  53.3906033  32.9990340  17.1560545  43.6057619  42.8179458   9.3934764
  43.8832406  42.6983765  10.3272780  42.7283146  42.4242777   9.4269013
  52.5614778  45.3258705  19.0887518  53.4904698  45.5367782  19.3832615
  52.0924149  45.2121215  19.9189582  49.0399739  38.2076884  22.7307507
  49.5588545  38.6791859  22.0320735  49.7793696  37.8103022  23.2534326
  46.2027838  33.2481566  -1.6156104  46.0323637  34.0374020  -2.2267746
  47.0429307  32.9016092  -2.0602604  55.1092419  35.6302996   4.5342390
  54.4935361  34.8658553   4.5670340  55.7670029  35.2715887   5.1318351
  62.6923443  31.8450760  13.5168032  62.8160081  31.1890682  14.2382341
  63.1871642  32.6120512  13.9390936  28.6580538  19.4525767  70.3125395
  29.2881727  18.7077640  70.4282942  28.5477559  19.4460709  69.3686859
  19.7986903  13.2451194  57.9792826  20.2260706  12.4323506  57.6118780
  18.8456337  12.9614874  57.8918993  48.7581753  47.2720326   0.7071639
  49.6118590  47.7290306   0.8500233  49.0497610  46.5525175   0.0627955
  59.0485310  25.9689533   7.7399071  58.5733614  26.7258843   7.3431557
  58.8604221  26.2385934   8.7174053  69.1260105  44.4732730  14.3123372
  70.1354091  44.6391336  14.1468454  68.8035924  45.2856577  13.8946912
  51.7901985  51.5723806  23.7062036  51.1464171  52.2254876  24.0863075
  51.2383127  51.1668208  22.9889758  37.7769281  16.4007813  66.6288068
  38.5998586  15.7759378  66.7827907  37.1553648  15.6739056  66.7960472
  77.1676220  35.7588837   9.0069391  76.9211750  35.1825163   8.2907383
  78.0828405  36.0302761   8.7348137  51.4259973  35.5423501  14.5292675
  51.1884296  34.7024196  14.2350760  50.5359368  36.0704635  14.4546566
  64.2586241  39.1207654  25.7818459  63.5660872  38.4417022  25.6410476
  65.0491229  38.5183533  25.7934653  55.5637496  27.5887263   8.0936270
  56.3581697  27.6911695   7.5383176  55.3413470  28.5113394   8.2707686
  45.8752894  54.9839239  17.4409578  45.7331283  55.9561604  17.3527851
  46.7383997  54.8005872  17.1206203  42.4119773  54.8797059  15.5212798
  42.5100382  55.5282320  14.7558359  42.6237258  55.4750374  16.2806516
  61.9169017  24.8982700   1.7167486  61.5181141  25.3170016   2.5200000
  61.1086871  24.4856517   1.3759750  62.6012893  53.4948203  11.5599326
  61.8757667  52.9857315  11.8910339  62.1026575  54.3438474  11.3646086
  55.6400002  63.1057783  18.1805020  54.8644939  62.5977547  18.5203947
  56.3051365  62.4583742  18.6266692  33.8316632  21.9004253  72.8568852
  34.1879385  20.9948699  72.6802040  33.9178468  22.2706224  71.9297165
  62.7847108  45.5592562  11.0890499  62.7040037  46.2727478  11.8017002
  63.7151017  45.5924722  10.8805548  24.0845829  18.9181913  64.0056461
  24.7885057  19.2156342  63.4404981  23.3544889  18.7758735  63.3266361
  54.7285975  55.6534478  11.8643681  55.4166397  56.3391886  11.9684582
  54.4759748  55.5880130  12.8172908  59.1165081  47.9968000  20.8180942
  58.9424073  48.7804363  20.2016346  58.8316987  48.4368840  21.6641836
  67.4076306  56.2702929  12.9549724  67.1710029  55.5898274  13.6508970
  66.5029466  56.4919802  12.6749573  42.5516037   7.6271435  70.8034522
  42.3326431   8.6325179  70.7594895  42.3854465   7.4060221  69.8933437
  54.2587647  51.5645560  13.8744084  53.8469855  51.5150329  12.9741382
  54.2982450  50.6061126  14.0502348  75.0228288  29.3298533  11.5764238
  75.7056548  29.6310348  12.2463075  75.3179632  29.8764864  10.8517990
  44.4147619   6.8533368  67.4153213  43.5232456   7.2547297  67.3008349
  44.7107169   7.4952954  68.1702609  51.6517458  59.5203162  18.5346517
  51.5561079  58.9911714  19.3580262  51.5547700  58.8073693  17.8976074
  69.3580564  48.5357089  15.7290125  68.8157727  49.3534754  15.4015621
  70.1739735  49.0652550  15.9164581  60.6370595  45.1616914  14.8156651
  61.1824096  45.3735998  13.9962369  60.4844702  44.2471654  14.6846412
  54.9430194  39.9271157  19.5304551  54.5256216  39.7997997  20.4442173
  55.8442917  39.6439617  19.7864637  75.0726873  47.8421997  13.5568916
  74.7348887  48.5323223  12.9298812  74.8237132  47.0194498  13.0776296
  63.3622546  56.6795724  17.3479935  62.8770911  56.7547707  18.2042965
  64.0040532  57.4322289  17.4722264  59.9784583  48.1914696  34.3106584
  59.3112282  48.1134771  35.0271543  60.0474544  47.1928819  34.0851670
  67.5368249  37.3538868  19.7485836  68.1815008  37.6833155  20.4557288
  67.6745307  36.4102133  19.7716989  35.9594842  23.1212084  76.5206959
  35.3754126  23.8370234  76.9542577  35.4565603  22.3448488  76.7276265
  59.0736115  46.8229096  24.3363628  59.5753025  46.3638329  25.0710486
  59.8074565  46.6742142  23.6255675  39.7572850  10.6380836  68.7730712
  38.8174725  10.6349581  68.9931539  40.1543298  10.7410794  69.6602175
   1.1204046  49.7789709  23.5552566   1.2826127  50.6660348  23.9392829
   1.2225078  49.9502245  22.6134851  59.1721188  54.7410198  17.0800034
  58.9158099  53.9684502  16.5632500  58.9775587  54.3658869  17.9920457
  61.1810264  52.2918266  15.1267863  60.3605931  52.1006015  15.5470043
  60.8569112  52.6825646  14.3139396  63.6668168  44.9953683   7.9991716
  64.3992845  45.0512000   8.6507776  63.1793875  45.8180502   8.3101275
  74.9858444  46.9182606  18.5210077  75.2445826  46.2751833  17.7939428
  75.6517739  46.6634125  19.2170586  55.2065945  46.4703877   8.1759050
  54.8417133  45.7611564   7.5924360  54.8577229  46.1976345   9.0210294
  77.3364993  55.4391720  18.4468930  77.5344152  55.0115134  19.3185456
  77.1622556  54.6353231  17.9032073  64.1214842  50.6411838   9.3618900
  64.4308124  50.1596979   8.5771158  64.0261125  49.9242701   9.9944389
  36.8162365  30.1704564  78.2051572  37.0344745  29.2489372  78.1616656
  35.8684198  30.1887797  78.1183642  71.1335558  40.6981000   6.2307212
  70.7202436  39.9985592   5.6529347  70.5597762  40.5915158   7.0186285
  54.2771525  47.4082265  24.9217460  54.9257840  47.1082814  25.5708180
  54.6648859  48.3409248  24.7629220  33.5790608  18.7522522  68.4477983
  34.0216397  18.2143438  67.7867604  32.6639513  18.7626325  68.0611817
  57.9882450  61.6095842  14.8375986  58.7699888  61.2915760  15.3860469
  57.8045670  62.4390652  15.3013524  67.8398297  47.2446914  17.8638364
  67.9150281  48.0300107  18.4305476  68.4172340  47.5494501  17.0841451
  72.9725491  44.0623662  26.6483376  72.8408064  43.3078241  26.1274627
  72.5751271  44.8052435  26.1688585  67.2645667  55.2024045  22.9762379
  67.7943750  56.0493258  23.1984963  67.2020672  54.8488275  23.8591789
  60.4964993  39.8609609  21.4572197  60.5569447  38.9163349  21.5734649
  60.0151438  39.8711545  20.5901614  42.9213851  22.7143428  77.3836287
  42.4165803  23.0565161  76.6016903  43.5469829  23.4108313  77.5654302
  47.4765978  21.0751205  78.5399853  47.7787377  20.7597204  79.4378528
  47.0729215  20.1919907  78.2658122  64.7445891  41.9878838  14.4306975
  65.5530771  42.4288174  14.6929816  64.3981075  41.7831125  15.3152360
  30.3949110  24.4954903  63.9434295  31.1549198  25.1123447  64.1421981
  29.7532960  24.6394909  64.6368183  41.2717648   1.0604947  62.0003733
  41.2976580   1.9511445  62.4667094  42.2108140   0.8233590  62.0693951
  74.0999555  50.2581678  12.5915481  73.6566408  50.8770000  13.2229742
  75.0089350  50.6274587  12.6315390  59.1542619  34.3335268   4.0093489
  59.0697834  34.3034716   3.0530081  60.1054054  34.1012031   4.1193796
  75.1426974  53.5158535  21.7313880  74.5683511  54.3111396  21.5556168
  74.5647269  52.8148482  21.4620374  53.8519316  42.3424350   7.8258117
  53.8273700  41.5756919   8.4264915  53.5446468  43.0573956   8.3845202
  77.6692360  48.1118179  14.8121075  77.3721292  47.4059049  14.2017588
  76.7658357  48.5350611  14.9950593  66.1255956  40.9300542  12.2458060
  66.4939164  40.1255663  12.6386611  65.7276682  41.3331303  13.0962529
  78.8417372  41.1958902   9.3635082  78.5595809  41.6301805  10.1635158
  78.2776494  41.6190563   8.7154992  48.9318511  52.1610664  11.5223758
  49.7534884  51.6876444  11.6915377  49.2697268  52.8012124  10.8447068
  60.4238429  44.7466797  10.4208420  60.8076287  44.3964583   9.5848828
  61.2337827  45.2252281  10.7426677  35.1075441  19.6465328  71.9984108
  34.6793495  18.7745009  72.1559205  35.7485650  19.4274037  71.3087228
  63.6800096  49.1043026  12.6826938  63.5770178  49.8374987  13.4073836
  64.3866744  48.5579169  13.0753326  61.8394743  47.0954479  12.9810778
  62.2274450  47.9858031  12.9455922  60.8474612  47.3196104  13.1548746
  64.0136586  45.1698555  23.7453774  63.8462218  45.7210478  24.5040805
  64.8251479  45.6233334  23.3599011  58.4267849  52.6739903  15.7807369
  57.5597828  52.9467458  15.4322278  58.2209594  51.6974849  15.9764904
  48.8044600  18.4585877  74.0158497  47.8524596  18.4162963  74.0014575
  48.9590868  18.7492521  74.9239980  47.8686655  18.1160655  68.7497506
  47.1845356  17.8528006  69.4472455  47.4660260  17.6588602  67.9817390
  44.3825998  20.1531271  75.8548057  43.6328788  19.9503779  75.2739893
  43.9785625  20.1630643  76.7623038  35.2538530  21.4291795  68.7222792
  36.1270343  21.9272810  68.6497170  35.5025742  20.5432156  68.3756189
  55.1831973  50.0115227  24.7574239  55.3764546  50.3708457  25.6639093
  55.1134432  50.9227336  24.2975288  57.5443819  56.6208230   8.4524010
  57.9296568  56.8170660   7.5565020  57.8242439  57.4335588   8.9294283
  65.5913019  47.5041912  13.5446970  66.6001164  47.4009442  13.3579032
  65.5863437  47.1000241  14.4409649  65.4119309  47.2411891  16.5860086
  66.2254810  47.5660673  17.0061178  65.5424779  46.2878371  16.6721055
  69.6916920  44.5545787  17.0424370  70.5920082  44.9280143  16.9431008
  69.4759121  44.4131457  16.0821277  68.1581222  45.0993968  19.2053227
  68.7062920  44.7735653  18.4524082  67.8305859  45.8980457  18.6572922
  66.2509719  54.4100369  14.8286788  65.6858881  54.3234144  15.6520104
  65.5816752  54.0462213  14.1692611  41.6407218  20.8991520  65.2582436
  41.4435953  20.5011284  66.1242010  41.0362261  20.4358641  64.6637171
  57.5468808  52.3436585  28.8292454  57.5737432  52.3486463  29.8430527
  58.5197098  52.4881829  28.6972681  62.5258088  54.3730777  21.9093898
  62.2138730  53.8532723  21.1352687  61.7235909  54.6770997  22.3800147
  52.0832405  23.4791772  81.6032368  52.5951875  23.7111204  80.8270590
  51.3802994  22.9221178  81.1996965  56.0405520  51.5457510  20.5888540
  56.7681555  51.6612311  21.2668342  55.4068301  51.0125421  21.1695224
  65.9945758  47.6254297  20.0349466  66.8046636  47.1176642  20.2162242
  66.3652445  48.3691638  19.5822134  49.9176433  52.2614802  19.6411729
  49.2768703  52.8726231  20.0776113  49.5002348  52.1291529  18.7877051
  59.4454446  40.5719485  18.6427931  58.7970941  41.1074688  19.0766593
  60.1637809  41.1784401  18.4464072  41.4138217  14.0141884  71.4844302
  41.4837133  12.9951175  71.4946669  42.3414123  14.1969697  71.2890203
  73.2426697  40.8330114  21.0656784  73.0968853  41.7419145  20.7310202
  72.3186529  40.5551366  21.1268612  76.1746125  50.7541890  15.2319992
  75.4813758  51.3288514  14.8464337  76.1632554  51.0861877  16.1583591
  47.2655155  23.7923984  72.6678087  47.9561667  24.4965107  72.7617631
  47.7850137  23.1166626  72.2060740  63.8813622  49.3744925  17.1354549
  64.3235367  48.5347856  16.8532816  63.0412261  49.0715862  17.5054410
  41.5292455  26.7473696  78.9339396  41.2612596  25.9044607  79.3907660
  42.2479579  26.3731681  78.3711213  61.6056563  39.8825609  15.7081005
  60.9644901  40.6179865  15.5009462  60.9595858  39.2441204  16.0463542
  68.8897685  42.9094010  22.3247016  69.0154586  41.9471373  22.3811289
  67.9519995  42.9980786  22.6159935   1.8047648  39.6562542  31.4626138
   2.2824489  40.2191747  30.8514370   1.3337927  39.0573795  30.8504479
  59.2347953  58.5796782  22.0513649  59.5450548  57.8127442  21.6427373
  58.7660421  58.3796614  22.8723256  59.8607416  56.8432984  13.9985942
  60.5080355  57.0937695  14.6326381  59.7046338  55.9056064  14.1293551
  62.4199707  66.3112385  21.2892334  62.5257610  65.5114849  21.8632164
  62.9757904  66.9432998  21.7403085  65.6747311  40.2433299  17.7329355
  65.2271080  39.5578031  18.2842714  64.8204358  40.6507693  17.3496490
  61.0594696  46.9052772  27.2385962  61.1232999  45.9181195  27.2618398
  60.2037017  47.0734176  27.6406462  63.7876810  42.9149409  19.1567746
  64.7551595  42.7557340  19.2699190  63.6392492  43.3356341  20.0782671
  60.6649618  47.7550524   4.4605525  59.7887236  47.5394553   4.0473447
  60.6702337  47.1466762   5.2146557  31.2732035  11.9622455  68.7799661
  31.0646907  11.4774053  69.6127985  32.2222711  12.2277909  69.0654611
  46.4086467  23.3888726  77.8786153  45.8378520  23.2274654  78.7422535
  46.8196612  22.5373281  77.9128578  55.4081892  48.1907049  19.2985106
  54.7228158  47.5616991  19.4120333  55.7000454  48.3648400  20.2048640
  30.9547408  22.6230272  60.3321645  30.2097935  23.2350616  60.3167498
  31.6702827  23.2581637  60.0411978  61.1457798  54.5942829   8.4453638
  61.9256716  53.9944612   8.4487580  60.4225463  54.0307919   8.2216572
  28.0155496  18.2464224  67.4147729  27.4331255  18.9234170  67.0064699
  27.7925503  17.4534869  66.8538263  62.6424293  45.5782185   5.5675425
  62.6011449  46.4601246   6.0382329  62.9957879  44.9941006   6.2276523
  54.9260064  53.4249109  10.2256064  54.8998467  54.2567468  10.7375324
  54.6727370  53.7750021   9.3544624  53.3151687  50.4159169   6.9631669
  53.7835820  50.0589308   7.7315248  52.4149055  50.3037921   7.1423710
  44.1461003  14.2154853  71.3168289  44.2463901  13.7948075  70.4279145
  44.8933275  13.9337546  71.7936158  46.8775263  12.3085427  71.1978892
  46.1425229  11.9847483  70.6290709  47.5440595  11.5869725  71.0677817
  67.6516347  41.8327133   4.6594326  67.4989279  40.9387796   4.9867783
  68.2450742  42.1453367   5.2953581  65.9491504  55.4249244  20.7074394
  66.3368949  55.4207007  21.6087233  65.1249798  55.9215096  20.9733912
  54.3319883  20.8365093  68.8914810  55.1540511  20.7401147  68.3905989
  53.7970784  20.0977401  68.5453669  68.2277064  40.8548780  18.6046957
  67.2323959  40.9682831  18.5540018  68.4236593  41.3914268  17.7970671
  61.9081904  57.1242108  19.6813365  62.6069760  57.1134023  20.4076098
  61.8485481  58.0652815  19.5247571  53.9292579  21.0438643  80.8664784
  53.7357145  21.6063728  81.6352917  54.0551738  21.8111471  80.1817537
  51.7959420  56.2211328   5.8106213  51.9586491  56.3748320   6.7451212
  52.6476480  56.1017016   5.4337498  71.6089445  52.2468830  15.4870389
  70.9979740  52.7371470  16.0672533  70.9859675  52.0107635  14.7353132
  27.9230831  21.6334926  71.6507708  28.8210610  21.9692012  71.7420808
  28.1476250  20.7781988  71.1412044  68.3810751  62.0675548  16.2320087
  67.4783064  62.0231753  15.8552551  68.4406191  61.1939861  16.6907648
  68.6714798  62.4685388  25.5728091  67.9380205  62.8395520  26.0628823
  68.2315842  62.1745389  24.7662899  61.5408543  53.0254791  20.0433918
  60.9213976  52.3407951  19.6522180  61.9449661  53.3707455  19.2125149
  72.7181982  58.0052848  20.7683641  73.4065447  58.7430763  20.6505859
  72.1283431  58.2944988  20.0569921  68.2328135  40.6317121  28.2098867
  67.3236059  40.9633007  28.3053485  68.1167554  39.7029087  28.0565709
  10.7349033  66.0803488  33.9533127  10.1216012  66.5946486  33.3984410
  11.4607509  65.9527588  33.3204002  63.8806197  49.4926433  22.1318374
  64.6888346  49.3588117  22.6398147  64.1310524  50.1842660  21.4857441
  58.7377510  45.8859405   2.7094957  59.1682520  45.4388817   3.5697364
  57.8716448  45.4861218   2.8693502  72.9354907  50.1517736  26.5950629
  72.8927298  50.8077423  25.9135850  72.9944458  49.3345221  26.0119194
  22.8441954  17.5408977  67.8936946  23.4773647  17.1056858  67.2606556
  23.0247534  18.4747009  67.7058551  64.8733020  34.3590178   7.1064986
  65.4690659  34.1492191   6.3922446  65.4624204  34.2602965   7.8853208
  68.2835990  46.6676566  21.5108828  68.2809686  46.0483892  20.7503572
  69.2288565  47.0405288  21.3365510  73.2047247  48.9452186  18.4506774
  73.3851982  49.4604879  19.2800236  73.8599200  48.2513064  18.5039317
  51.4201104  16.5239255  77.3321676  50.6123604  17.1349105  77.2049467
  52.0766425  17.3072815  77.2787211   6.4045062  29.4604186  13.3330557
   5.5207261  29.2985626  12.9853611   6.9199223  29.1940015  12.5298759
  57.3595834   6.7634082  68.9836294  58.0600030   6.3428864  68.4368245
  57.8694472   7.4913504  69.3777233   4.4563844  59.7331777  15.6310720
   4.9514214  58.9069426  15.8210965   4.4456077  60.1534906  16.5125860
  72.6841098  42.3193360  24.3165850  72.4397063  43.0698833  23.7611791
  71.8247737  42.0053371  24.6534481  61.5734309  51.7634271   7.0310093
  61.3357987  51.2301013   7.8537102  62.2620564  51.1352389   6.7072440
  54.1781974  57.7937978  26.3277554  54.2302358  57.4199883  27.2268751
  54.5497455  57.0427634  25.8268658  49.1472331   3.7858443  70.6360851
  49.1540729   2.9608142  71.1524672  48.2097482   4.0575223  70.6595742
  61.3169401  40.6998901   2.6456869  60.6692655  41.3831231   2.3218397
  62.0703764  40.9354021   2.0608657  63.2599757  47.5054802  20.5549301
  63.6378558  48.0917973  21.3318158  64.2051955  47.5112563  20.1279675
  54.7525854  52.9507893  18.5193293  54.3497781  52.3166308  17.8881359
  55.2340757  52.3179828  19.1062161  65.0912819  31.4963899   1.9002190
  65.4777900  30.9131639   2.5716461  64.1708083  31.1965898   1.8811008
  46.7496290  18.8765403  77.1280952  46.1709174  19.3287792  76.5194625
  46.2414671  18.0028188  77.1814191  42.4099603  17.1903000  76.2825769
  41.9459554  17.8130802  76.8822283  41.6387281  16.5164147  76.2350320
  54.7662126  49.4432756   8.8966937  54.9579191  48.4929105   8.9834795
  55.6779067  49.8232255   8.7775518  63.8942456  56.7225768  21.7770514
  63.4189412  55.9811080  22.1002197  63.7041340  57.4884822  22.3214531
  69.1807266  57.0885476  27.1646192  70.0461273  57.5198209  27.3253476
  69.4248542  56.1601417  27.1892707  48.4199802  42.4097513   6.6883726
  48.9400275  41.6289140   6.3555433  48.2629150  42.8615390   5.8104296
  66.6207819  51.5582990  12.8902097  65.7145978  51.1899585  12.6667930
  66.5109677  52.3642488  12.3880288  64.2887419  47.0924831  29.3017927
  64.7380461  47.9915109  29.4380208  64.3689931  47.0147820  28.3748405
  57.3127025  56.3215997  16.6024403  58.0354023  55.7128447  16.9662992
  57.6309989  56.3023322  15.6542294  56.8121595  59.3981164  13.6947587
  57.0219381  60.3251062  13.9464576  56.3814410  59.1511335  14.5669950
  52.8807616  56.9512122  19.3371022  52.0624384  56.4983999  19.6449504
  53.3199492  56.2365697  18.8045256  67.6733969  47.0955412  26.0077868
  67.9890962  46.1417598  26.0616023  67.2446912  47.0379699  25.1036449
  37.6758721  14.5754175  59.3526646  38.4837024  14.3279295  59.7848578
  37.8382719  14.5932124  58.3972672  67.7740821  68.1643608  19.3434952
  67.0219602  67.4914373  19.3477126  68.2552426  67.7787844  18.5572060
  77.9238685  65.7513211  31.2715493  77.5537227  66.3594606  30.6089131
  77.6268548  66.1584813  32.1015452  69.8855464  38.4723442   5.4491503
  69.8006848  38.1015462   4.5043721  70.5425792  37.8484118   5.7814805
  60.3215137  44.0526082  21.7507388  60.7680655  44.9063507  21.6748820
  59.5276794  44.2672481  21.1445859  71.2458892  57.8206780  17.3431633
  70.7777662  57.0454695  17.7546532  71.5379134  57.4085041  16.4807078
  49.3841167  29.2833574  84.9032196  49.0529858  28.4241789  84.5608366
  48.6082426  29.5872387  85.4411698  52.3598365  26.9383475  78.3973726
  51.8674089  27.3814090  77.7459404  53.2547876  26.9738761  78.0093628
  79.4906022  65.5374652  22.3547267  78.9762762  66.1286120  22.9304891
  78.7396296  64.9161243  22.0967983  51.6085177  41.1427011  78.5245195
  51.3876953  42.0772500  78.4336330  52.0475533  41.1184115  79.4011440
  53.6444979  30.6889551  83.5349929  53.3967084  30.9787943  82.6041881
  52.7537432  30.8569803  83.9292167  71.6356016  63.6180544  27.8773903
  70.8441602  64.1406880  27.6176845  71.2401760  62.7008854  27.8201361
  64.6194132  53.8299039  23.7708756  63.8690019  53.3819480  24.2349356
  64.1070333  54.3145598  23.0625256  51.8901311  38.9277123  82.7568971
  51.4486520  38.3729872  83.3835778  51.2030167  39.1665032  82.1249554
  73.9320011  61.8121910  28.9204825  73.2830592  62.1200225  28.2111576
  74.6552719  61.4980725  28.3551532  33.4676741  25.0568115  77.3686391
  33.3059330  24.1520684  77.7434943  32.5525828  25.2535228  77.1123236
  73.5576012  55.8085715  22.1756842  73.4547200  56.4223224  21.4345948
  72.8436629  56.1785422  22.7975586  58.5942301  58.7307831  10.2471843
  59.1949250  59.2388578   9.5980642  58.9078140  59.1145875  11.0785760
  25.1758187  -3.3412968  23.0630156  24.2989745  -3.7655072  23.0357042
  25.6348385  -3.9708188  22.4218338  66.5508717  52.3935398  24.8255123
  65.7568896  52.7196193  24.3513397  66.7961622  53.1136159  25.4047048
  77.3085120  61.2824903  23.5038190  77.2519256  61.3804920  22.5084113
  76.6463503  60.5515987  23.5990256  71.3492006  54.5403432  13.0471383
  70.6349102  54.8660789  12.4387327  70.8929247  53.7449629  13.3954752
  72.0574178  60.1021648  18.1027194  71.4942922  60.2093410  18.9225508
  71.8748084  59.1407951  17.8670686   2.7559270  46.8302909  23.4743548
   3.2040120  47.6137409  23.8692324   3.5222313  46.3616946  23.1156269
  11.1941907  69.2602148  17.1035017  10.1903604  69.1968476  17.0215253
  11.1835819  70.0258548  17.7675681  67.1261585  49.3248646  71.0674194
  67.8378058  49.0351502  71.6505643  66.8626762  48.5188899  70.6372970
  37.1504563   7.1148539  12.4401759  38.0820888   7.2752044  12.6484588
  36.7327522   7.3933479  13.2521314  61.6121198  42.5820076  76.9985100
  62.2434691  43.2787842  77.1973451  61.8582598  42.1878694  76.2264459
   1.5949363  45.0811562  66.5217331   0.8412922  44.7376952  67.0386422
   2.2302643  44.3003426  66.5789034   0.3979927  44.4108803  69.6464711
   0.9684655  43.7967784  70.1795968   0.6504233  45.2383373  70.1069739
  34.5247217  73.0194362   9.8293460  35.4323687  73.0828108  10.1663596
  34.3806516  73.7961752   9.3152130  77.1199083  44.6428808  63.8945181
  77.1157644  44.6045726  64.8780578  77.8707967  44.0964068  63.7026988
  78.9557381  60.2878795  60.0552588  79.2527485  60.8596278  59.3048960
  79.5771744  59.5294067  59.8657003  73.9001693  36.2173657  65.2136098
  73.2859513  36.9537873  65.1131677  74.5547130  36.4347589  64.5137847
  71.0862618  44.6854230  66.9974070  70.8385041  44.6851154  66.0331828
  70.2081615  44.4016214  67.3689134  50.1324181  12.8425145  13.5994209
  50.8164149  12.1767860  13.5288928  50.0814074  13.1714486  12.6654189
  40.6434019   9.0978312  10.7432005  40.4667804   8.5020506  11.4890621
  41.4857553   8.6727337  10.3756043  56.6194447   8.4572439  11.5607012
  56.3012438   8.8992973  12.3879903  56.9858092   9.1127632  11.0210062
  78.1635062  47.8077337  55.1909289  78.8402693  48.5015982  55.1465678
  78.0142152  47.7051162  54.2337437  39.0309529  72.1833923   9.9164250
  39.8339315  71.8881247  10.4417584  39.5317455  72.7226763   9.2219992
  53.9007164  19.5196733  13.7482743  53.3729527  19.5631710  12.9343665
  54.7273045  19.9253188  13.5525793  71.0493534  38.9921381  71.6861991
  70.7399633  38.1814954  71.2676873  71.9870780  38.8098888  71.8105701
  56.0756161  53.2232575  60.6630159  55.2819880  53.3449990  60.1022506
  55.8685359  53.8397346  61.4237840  72.5514369  34.4317858  74.6456635
  72.8439292  34.8281075  73.7548452  72.7194403  33.5159183  74.4707189
  77.9245905  47.1736117  67.6940450  76.9804257  46.8149944  67.7076271
  78.3511608  46.4681546  67.2174434  55.0214760  16.0676967   1.8508659
  55.0108698  15.8619149   2.8079107  55.6221281  16.8861187   1.8691074
  57.6374309  28.2204894   3.6402536  56.8242531  27.6749059   3.7052288
  57.2501829  29.0670235   3.3780474  51.5456660  28.1471886   8.7826540
  52.3041021  27.4728972   8.9327494  51.9441801  28.9116832   9.1475096
  53.1314768  30.2104641  10.0485806  53.9576990  30.3694366   9.5629869
  53.4170105  29.8702355  10.8702655   7.0502024  54.3754017  69.2620972
   7.9235656  54.0654236  69.5876065   6.6860926  54.8687101  69.9775393
  53.3149387  22.1483067   2.6235634  52.5535607  21.9845180   2.1032405
  52.9620264  21.7932834   3.5403273   5.5230403  52.1230014  65.3581233
   5.1941191  52.9250350  64.8346219   5.0297119  52.1968012  66.1434572
  66.0049281  46.7135734  70.3338006  65.4554209  47.2603014  69.7343654
  65.3233046  46.1453813  70.6847958  41.5093080  30.2559327   4.0424626
  40.9241314  30.9069511   4.3724754  41.6809369  30.4564901   3.1114827
  63.3818910  16.5105050  16.5609927  62.5466910  16.7170315  16.0007120
  63.5915573  15.6144092  16.1959038  44.1673128  13.5212545   5.2222119
  43.8345602  12.8166629   5.8310326  43.3464000  13.6933956   4.7494114
  56.6274618   4.3160964  12.1065122  56.1417680   3.4206126  11.9640849
  55.8970623   4.9332476  11.8261733  55.6921616  10.3946025   5.4813112
  55.7610342   9.9136213   4.6528031  56.3874472   9.9391803   6.0074623
  12.1936113  48.1254384  73.9309496  11.5972020  48.6354312  74.4933256
  11.9148852  48.4226870  73.0622200  49.2803472   9.4250230   9.6288897
  50.0396239   9.9517017   9.9434356  49.7101012   8.5290518   9.5440054
   9.9163716  49.2091338  71.6698293   9.1038468  49.7044283  71.2863794
  10.3313811  49.9075482  72.1905006  57.8988038  26.4266027   0.0083256
  58.0664642  26.5011269  -0.9670727  56.9404957  26.4656263   0.0938534
   3.3819029  46.7044941  67.9066457   2.6440857  46.2853315  67.4289546
   3.3120327  47.6457589  67.5366075  59.4433486  15.7627287  13.7143596
  58.9083600  15.6034254  12.8887163  59.8569782  14.9090558  13.8722310
  10.3412984  56.8783602  68.5116516  10.0961793  57.3502717  69.3311231
  11.3248541  57.1529778  68.4736423  51.1623341  21.9201429   0.9286043
  50.9471135  22.8049015   0.6874492  50.9637431  21.4462472   0.1163521
  51.4736534  21.2633850   4.5114551  50.6386774  21.7632508   4.6311396
  51.1609021  20.5642860   3.9123983  54.5353682   7.6299256  18.0978425
  54.6569256   6.8940481  18.7131802  55.4897470   7.8429577  17.9102955
  74.8444900  53.7472848  56.8561217  75.5086674  53.6662817  57.6427394
  74.4153319  52.9166125  56.9720497  52.3611644  11.2008965  14.8835575
  52.7910303  10.3731198  14.4997087  53.1047783  11.7807943  14.7227341
  78.0487524  48.3532710  64.2815114  77.9628319  49.1443390  64.8348577
  79.0229939  48.2557351  64.3458561   8.9521726  48.2122815  74.0663013
   9.5644170  48.4029775  73.3271289   8.4684963  47.4800159  73.7185680
  51.0407533  34.2033738   4.2496812  50.0920740  34.1818805   4.4430400
  51.0192546  34.7197812   3.4110265  59.2461132  32.4946389   9.5134389
  58.6021079  32.9080205  10.1606455  59.7287346  33.3010792   9.3126752
  56.8092311  31.9608739   5.1203051  56.8780145  31.6124799   4.2194802
  56.8115726  32.8780658   5.0264392  76.9884001  63.4682645  58.6702260
  76.6714530  64.0474781  59.4190233  76.1587135  63.0029149  58.4766888
  51.1436888  28.5569777   0.9087054  51.1336953  27.5849060   1.0939103
  50.3575822  28.8630981   1.4201955  50.5598062  21.9228712   9.8198733
  49.7109824  22.0428453  10.2727630  50.6181745  20.9292574   9.7435741
  51.5075619  16.2078726   2.6745178  52.1439970  15.4797366   2.5134263
  52.0344666  16.7595290   3.3502755  26.0751814  -3.3123171  45.2409477
  26.0065883  -4.0154711  44.5496641  25.5425913  -2.5902042  44.7584578
  70.1134043  54.6854401  56.4403642  69.7726334  54.1288371  57.1905027
  69.9527627  54.0821987  55.6896709   2.9395473  57.7563412  63.0450066
   3.5420749  58.5375740  62.9827646   2.2923430  58.1956117  63.6820176
   9.9842890  56.7121972  64.0469728   9.8435782  57.0043388  64.9635753
   9.0706629  56.7821961  63.6748089  52.7988687   3.9620481   6.6344632
  52.8264401   4.6281415   7.3584939  53.4618617   4.3334108   5.9639734
  58.1814211  15.1454610  11.3857189  57.8133364  14.3100556  11.0602667
  57.6023574  15.8011734  10.9361032   7.4945107  60.0657852  60.4058925
   7.4053597  59.1312218  60.1589713   7.9872885  60.4080656  59.5989828
  52.3593716  24.6684944   3.5732935  52.3838310  24.7787656   4.4984001
  52.7138657  23.8154560   3.3921633   4.3153563  66.6319482  56.6303067
   3.7046814  65.8780202  56.8455434   5.0229040  66.4135432  57.2718280
  59.8675884  28.1638580   1.0793632  59.1537843  28.8753630   1.0883699
  59.2710435  27.4113330   1.1397074  45.1918362  19.1173925   8.1494803
  45.8288694  19.8508288   8.1204465  44.6944842  19.2446636   7.3047564
  45.7127920  17.8414875  15.4550517  46.0609580  16.9346846  15.3584180
  45.0598216  17.6684141  16.1753275  72.9171959  25.9145027  13.9135519
  72.2315773  25.3842987  14.4329862  73.7394958  25.6042688  14.3835223
  78.5083199  44.0306452  67.4306894  78.0515185  43.1632352  67.5224526
  78.9239381  44.0660985  68.3448861  44.5352810  38.3891828  -0.0403909
  44.5493108  37.8350616  -0.8946808  44.1154883  37.7543328   0.5598017
  11.1211009  52.0641725  62.2236854  11.8051628  52.5152884  61.6965583
  10.9329687  52.7950899  62.8636288  63.0836567  54.5144043  68.7669606
  64.0690329  54.5295384  68.5900225  62.8429329  55.3864768  68.5284509
  78.2781017  54.4978869  62.4527426  78.9360563  55.0086973  62.9933676
  77.8378676  53.9439888  63.1321872  50.9449505  30.1164672   5.2945672
  51.0544161  31.0521876   5.0920740  50.0658749  30.0475824   5.6766121
  74.3932893  62.4112330  60.9038935  74.6080408  61.8600734  60.1379322
  74.5965061  61.8028161  61.6218956  55.2187373  27.4157182  -0.1619995
  54.4852798  26.7517080  -0.3170604  54.7239038  28.0662855   0.4152168
  27.0972815  11.2010975  65.4943079  27.3409752  12.1526967  65.3371000
  27.6776750  11.1336301  66.2829646  61.0952145  15.4028234  10.7339753
  61.4379122  14.9550685  11.5429944  60.1223084  15.4088186  10.9514061
  43.6757490  22.1045129   5.5391642  44.3030279  22.8441631   5.6539060
  43.0504472  22.4650194   6.2503752  55.3113697  21.8357755  10.6067345
  55.9107100  21.1431020  10.9451669  55.2461504  21.5592677   9.6838512
  61.4340767  29.8798966   6.8334272  60.9238208  29.9035911   7.7077116
  61.8623395  30.7740295   6.9689778   3.8656206  41.3400780  71.5668504
   3.4456251  40.4148688  71.5263053   3.4539398  41.6042026  72.4138427
  74.3396020  35.9109858  68.0047959  75.0162435  35.2632762  68.1424725
  74.2815203  35.9404632  67.0213945  58.9995577  21.2933337   5.8922481
  59.4169034  21.8405897   5.1353419  58.8997890  22.0097571   6.5447272
  51.9041767  34.4908499  -6.2456248  51.9497187  35.0840567  -5.4697419
  52.3248876  35.0221716  -6.9510033  11.4319834  44.0972800  70.9267145
  11.4852853  43.5822851  70.1195084  10.6016120  44.5682982  70.8361098
  68.4494217  33.3003901  67.1431468  68.5303915  34.0986555  66.5949094
  67.9781492  33.7061048  67.9120296  65.1245794  29.9807254   4.3773297
  65.4641199  29.9291614   5.2998772  64.3006267  30.4719673   4.5675235
  19.9354739  69.0647494  52.3890871  20.0207698  69.9056390  52.9237507
  19.4284757  68.5721184  53.0658070  10.9333659  52.2169975  65.9498484
  11.1027176  52.9635096  66.5850156  10.7458771  52.7712369  65.1649589
  55.3775362  11.2457133   8.9923438  54.9428013  10.7902868   9.6979498
  56.1644696  10.7211678   8.8190627   8.5878481  43.7506977  70.9400088
   8.2753575  44.1654332  70.1327930   8.2498127  42.8540867  70.8090625
  48.0014644  22.5310352  10.6517601  47.2152990  21.9242315  10.7953105
  48.3682808  22.5149852  11.5618297  49.2027992  12.4305724   6.7265631
  50.1379816  12.1163141   6.6167760  48.8363102  11.9313719   5.9093743
  15.1384479  67.5351682  68.3797725  15.6331197  68.2717397  68.7980492
  15.5850287  67.5078529  67.5027847   0.7717902  54.9689740  60.3982719
  -0.0694201  54.7329838  60.8903482   0.8235437  54.2013390  59.8093986
  43.5580355  25.9532971   3.7500042  44.1777946  26.1507692   2.9789188
  44.2437313  25.8308528   4.4579974  55.6196033  35.1523526  -1.7324505
  55.0335593  34.4239374  -1.8129018  55.2076162  35.5981230  -0.9361981
  46.5860215  16.3020420   3.5860420  46.5415269  15.3952632   3.9464263
  47.1991195  16.2083712   2.9144157   7.5412080  40.7669677  72.5109139
   7.1638375  40.0379857  71.9611395   8.4855322  40.4920389  72.4985717
  12.4020175  60.6966362  69.4357867  12.8103650  61.6040753  69.4744011
  12.2653257  60.6093236  68.4817930  58.1041141  12.7993793   8.1846167
  57.5501314  12.7361962   8.9745229  58.4287965  11.9012736   8.0882633
   1.9206716  37.3310732  67.0884727   1.9221501  36.3772833  67.2118133
   1.6762256  37.4089418  66.1743159  76.7901296  53.4144508  58.7710204
  76.3824550  52.9175192  59.5041418  76.8829346  54.3244264  59.1556761
  36.7410435  -1.8048143  59.7169077  36.1924248  -1.6868643  60.4926626
  36.2634424  -2.4703929  59.1644956  13.5821191  43.7190533  76.0125191
  13.3965749  43.5275229  75.0623635  14.5602700  43.8386083  75.9264697
   1.6784762  46.7330993  62.4274549   2.1232115  46.3693455  61.5874825
   0.7910138  46.8607308  62.0191353  70.1420431  49.3651807  64.5712844
  69.9860226  49.4074431  65.5693013  69.1530409  49.3860504  64.3669849
  61.8982303  20.6352727  14.9168100  60.9406746  20.8644486  15.0402798
  61.7898470  19.9559244  14.1905740  46.6199976  21.5730887   7.6213572
  47.1688967  22.1839354   7.1869385  46.1757199  22.1188245   8.2920401
  51.1466411  11.6743976  10.1255746  50.5260859  12.3402826   9.6890519
  51.7495371  11.6264008   9.3253656  74.5246239  55.1310992  60.6192750
  75.4361249  55.5235260  60.5757256  74.6723813  54.2392983  60.9288238
  40.1807523  22.3863643   3.8341916  39.9448577  22.1472569   2.9229520
  40.3693939  21.4518529   4.1952368  16.5479724  53.0427560  75.8532535
  15.6319302  52.7622444  75.6106495  16.3964555  53.8603247  76.3885253
  57.4630595  22.3235713   1.2881148  57.7626455  21.3490284   1.4249503
  56.9449026  22.4046370   2.1448580  51.1311769  26.2504014   1.7542970
  50.4788607  26.3648322   2.4975226  51.8569308  25.9265872   2.2267862
  68.4698860  51.2980110  68.6265907  68.4245010  51.9057213  67.8385549
  67.4631520  51.2007109  68.7274105   9.4253863  50.4237760  67.2736124
   9.9906960  51.0128380  66.6790057  10.0002198  49.6041753  67.2524191
  32.5601572  -3.8045742  57.2453362  32.1252804  -4.3253894  56.5241793
  32.1214698  -4.0879672  58.0228225  51.2601871  31.9580079  -2.3665992
  51.3680836  30.9939367  -2.7051728  51.9622504  32.4050063  -2.9159508
   7.3519325  37.8554297  73.7529893   6.4257554  37.7800607  73.4550363
   7.2960815  38.6486976  74.3338028  19.9996628  69.2224498  63.4375218
  19.8800405  70.1565706  63.1738407  19.1756304  69.2069938  64.0466083
  57.2607614  50.7284277   8.3382385  58.0740088  51.0145604   8.8116667
  56.8520787  51.5921532   8.1157476  18.7616152  71.8033801  62.7680202
  18.0082810  71.8764621  62.1393448  19.1443840  72.7412854  62.6714223
  32.5381694   9.0226662  51.6190091  31.6190637   9.2380397  51.8691011
  32.5286178   8.0147005  51.8072663  63.9593880  35.2206179   3.5125457
  63.2380768  34.6193245   3.8677714  63.5177254  36.0662256   3.6768569
  61.5512242  33.1789993   4.5783777  61.7171042  33.1727243   5.5461154
  61.4475213  32.2106210   4.4268376  69.3915380  37.2418309   3.1891743
  68.8864522  36.3833011   3.1371976  70.0770498  37.0486268   2.5244284
  58.2269114  33.8744990   1.2423954  57.8292817  34.5946906   0.8062186
  57.4023543  33.3002405   1.4145402  64.4828898  43.1720404   4.3452845
  63.9199355  43.8161798   3.8892785  65.1292604  42.8367820   3.7496981
  66.2624007  36.8011840   1.6143710  66.5686745  36.6334513   0.7086259
  65.3581711  36.5262199   1.6054824  58.2031813  35.9361498  -1.5436581
  57.3791712  35.4133512  -1.8109056  58.8559304  35.3171491  -1.8095946
  71.0128726  32.7488113   6.7868748  70.7339885  33.5658756   6.3225597
  71.5830926  32.3121775   6.0996912  20.8795279  70.1984501  59.2443065
  21.2979360  69.2741305  59.2548492  20.7541815  70.2281874  58.2512832
  20.2241527  68.2532977  56.2812920  19.4769946  68.3021031  55.5837048
  20.3919358  69.2101078  56.3179699  12.9387447  57.9097550  69.3947285
  12.9099163  58.8271268  69.7238360  13.2419555  57.5307147  70.2496232
  66.5531196  25.2276790   5.3481877  67.0874265  24.7338272   6.0148433
  66.6064798  26.1148596   5.7216340  23.4584297  66.6868282  48.7596101
  23.4835569  66.2922964  49.6607443  23.7035482  67.6002497  48.9376346
  33.6931800   3.7615521  56.9027977  33.3525921   3.3410313  57.7532228
  34.6073253   3.9275102  57.2284735  56.8842629  29.0382764  -1.5255172
  56.2734808  28.4599835  -0.9715289  57.4370502  28.3460567  -1.9515496
  53.1170816  25.6701217  -0.6392938  53.8079729  25.8355879  -1.2935801
  52.7071579  24.8426184  -1.0349853  50.6006881  35.6683297   2.0348687
  50.4472474  35.8422522   1.1087768  50.6364914  36.6186523   2.3502811
  34.1181113   4.1385385  64.3934781  35.0144908   3.8207265  64.6224483
  33.8764245   4.5806529  65.2493871  18.0519548  72.6881939  58.4989113
  17.6817286  71.9632121  59.0515422  18.3429435  73.3143973  59.1548343
  55.2995276  41.3777650  14.0586234  54.9401843  40.7752104  14.7015597
  54.6485209  41.2711884  13.3339785  58.8316064  20.5721403  11.2600002
  59.3948374  19.8376495  11.2772488  59.2659052  21.2006107  10.6574020
  16.8965356  69.6686802  57.2117091  17.2143137  69.2604074  56.3737511
  16.3902301  70.4559513  56.8750486  14.9833107  72.8299765  61.2636886
  15.5402198  72.0288591  61.0233404  15.1282395  73.4540233  60.5969648
  65.0896790  26.1559231   9.1242061  65.7270055  26.5627452   8.4345634
  65.8227062  25.8980003   9.8047799  64.2589751  33.7908000   0.8627066
  64.6184100  33.0198319   1.3926899  64.0377636  34.4394031   1.6454039
  46.8654229   6.6453722  61.1018942  46.0681402   6.8895590  60.5917635
  47.4107122   7.4453068  60.8111945  28.9344771  11.1060050  61.6226134
  29.9591685  11.0743535  61.7246841  28.8006072  10.2183846  62.0227122
  76.7940905  35.2626636  14.2524323  77.2968054  34.4333427  14.2368643
  77.4697791  35.8294557  14.6878554  27.7964131  76.0846854  64.3586665
  28.4580150  76.4632689  63.7435254  27.8868382  75.1414969  64.1936876
  54.4218740  31.5042058  -7.5115744  54.9475769  31.4749980  -8.2884231
  54.1761743  30.6146619  -7.3277284  33.2022940   2.6186697  59.5128688
  33.2574221   2.9416168  60.3824757  33.6850339   1.7890240  59.4523851
  38.7432282   1.2271617  63.1664625  38.5785645   0.5549812  63.8199995
  39.7003244   1.0262092  62.9300681  44.2348957  -0.5071817  65.6454127
  44.5375812  -1.3678850  65.9447241  45.0711207   0.0041804  65.7039310
  69.1144784  32.6601786   4.1761111  69.8834405  33.2385877   4.3574507
  68.5851148  33.1752446   3.5404999  29.9156202  -0.1147539  61.3046761
  28.9877816   0.1259362  61.1043186  29.7097783  -0.7407458  62.0700050
  37.2367709   8.4264291  68.0449795  36.5336789   8.5111569  67.3875586
  36.7376429   8.3935436  68.8821031  58.8838781  31.7610403  -2.0093947
  59.3848892  31.0237731  -2.4101872  59.6287817  32.4552834  -1.9326144
  56.9019739  37.5191703  10.1116822  56.4801623  37.6933752  11.0273849
  56.2211711  38.1310552   9.6349986  71.8586074  29.7140643  15.0327972
  70.9829512  29.4715268  15.3086837  72.3946513  29.2246403  15.7487257
  63.0707441  32.8374321   9.5201508  63.4136938  33.3314193  10.3504126
  62.3497593  33.3994563   9.2985605  60.3677366  30.2389413   9.1945349
  60.0226903  31.2101534   9.3287602  59.5166130  29.8467332   9.5380103
  17.4786712  64.8092775  60.5550259  17.1025842  64.0337790  61.0281065
  16.7279807  65.4302759  60.5902859  18.0332737  69.2660086  65.7236547
  17.5011468  68.6133897  65.2715048  18.4293088  68.8053297  66.4699965
  36.6216977   1.1507857  56.1700325  37.4846716   0.8512316  55.8143838
  36.7775908   0.8827832  57.0853329  55.2448986  26.8723410   3.4318549
  54.7116809  26.8689091   4.2107359  54.8790841  27.6148790   2.9146457
  19.8900896  68.8299972  70.2396604  20.2943177  69.2656931  69.4791221
  20.1222181  67.8894730  70.1579689  18.0802026  67.0844716  67.6742733
  17.9100882  66.3730294  68.3246076  19.0534578  67.1621624  67.7235689
  17.8899685  55.9899755  76.3028775  18.2521205  55.7347087  75.4075153
  17.3832819  56.7293611  76.0516882  73.1717582  38.1660552   4.0529308
  73.4931653  37.7470638   4.8959501  73.2086433  37.3219891   3.4879028
  68.9402142  64.0810623  42.6033757  68.5672311  64.9685402  42.9809572
  69.8494206  64.3902467  42.5604533  63.2880237  31.9310070  -1.0381801
  62.9203449  31.2296224  -0.3859015  63.4158637  32.6444163  -0.3171646
  36.1416596   4.1542492  57.7286319  36.3707712   4.7528603  58.4885279
  36.7542434   3.4046341  57.9766559  20.1491427  64.4231299  60.7533698
  19.9860692  63.5827026  60.2352756  19.2181468  64.7221369  60.7064378
  58.0666082  40.6118101   3.2488201  57.9392494  39.6911798   3.5752645
  57.7206456  40.4585411   2.3264751  48.9990648  30.5799205  11.0234615
  49.3888127  30.0739030  11.7518957  48.3517704  29.9408993  10.6819869
  53.6239928  28.9962935  -6.1666470  53.9689557  28.7884899  -5.2078783
  52.7094774  29.2383573  -5.9248717  63.8401521  38.7719999   8.3270711
  63.9072770  39.5827281   8.7775535  64.3538575  38.1531920   8.8540724
  39.7506531   3.7387102  58.9661254  39.5093609   3.2750398  59.7737586
  40.3435943   4.4405160  59.3024079  14.2108398  63.0595529  67.6214010
  14.2336215  63.1215833  68.5843399  14.1739266  64.0358893  67.3904055
  57.0298823  43.5491891   5.8769633  57.5819975  42.7710825   5.5382582
  57.3695839  43.6818560   6.7629927  39.8265098   4.1479683  67.4524118
  40.4143409   4.3155012  68.1995813  39.7339285   3.1545377  67.5331358
   6.6304644  59.5146331  53.5428801   6.4999052  60.3365367  53.0262992
   5.6780094  59.3802242  53.8120888  14.8132021  63.2932575  59.2584928
  14.1825242  62.8343054  59.8279392  14.3721238  64.1084546  59.0536288
  42.0899110  14.8323797  63.3462427  41.2625764  14.4315376  63.6940991
  41.9064621  15.7377853  63.6636097  48.9783074  29.2991124   2.3639442
  49.3703328  28.7441870   3.0438135  48.5627749  29.9869354   2.9520400
  13.2023959  65.6404001  67.0159069  13.0552387  66.3212640  67.7092053
  13.8524900  66.1003497  66.4424374  12.0628824  71.9797247  61.3563543
  11.2902901  72.2301080  60.8141571  12.7708062  72.5529591  60.9671148
  10.9673366  51.0991174  73.4051298  10.3611516  51.8225576  73.7133401
  11.2833474  50.7511692  74.2911810  48.3431495  34.3903451   3.5909463
  48.8566464  34.9484435   2.9087541  47.5826198  34.9542321   3.7192641
  41.4901024  25.0745434   8.1167385  41.4049945  25.9885551   7.6772085
  40.8297773  24.5924333   7.5772235  57.1851449  34.5910085   5.9801482
  58.0241462  34.7042677   5.4413713  57.4869109  34.9361292   6.8085132
  27.0337619  12.8754520  57.8740567  26.3632572  12.2703489  58.2448675
  26.4489946  13.6226588  57.6497601  34.2068574   3.7167630  61.7951615
  35.1551504   4.0338978  61.6922197  34.0327233   4.0053613  62.7075791
  55.3850538  45.9280362   1.4695430  55.3091743  46.6916005   2.1053227
  55.5768826  45.1659467   2.1513047  42.2785520  42.7821587  14.2262403
  42.5855310  41.8843167  14.0871624  42.0532273  43.0924869  13.3208392
  54.0487814   6.0914821  72.0482246  54.5119937   6.0064177  71.1648102
  54.8982049   6.3216027  72.5413751  16.9545473  61.2226434  71.1403854
  17.4237087  60.3632813  71.1569442  16.0644507  60.9814699  71.4743760
  25.5208038  60.5874685  77.9630870  25.7339251  59.7013201  77.7027244
  25.1774599  60.3775968  78.8663800  63.2362122  27.5322062   6.9951369
  63.1649689  27.2244176   7.9530346  62.5532974  28.2285675   7.0747617
  74.6858513  37.1428862   6.2639945  75.3972048  36.8627011   5.6736602
  75.1092457  37.9316338   6.7052491  30.5096197  74.4518283  71.2597687
  31.0991974  75.0711259  70.9093415  30.1080181  74.0897377  70.4094052
  10.6803367  71.6229955  56.2072108   9.7730338  71.3210460  55.9374107
  10.8412855  72.3074248  55.5604919  60.0311896  34.6726074  15.7305652
  59.2664663  35.2082231  15.4508886  60.0030400  34.0008104  15.0400792
  26.4692377  -4.3562193  55.6719248  26.9473249  -5.0369789  56.2152696
  26.3325842  -4.8962625  54.8709959  54.5511446  43.5141885   0.1779966
  54.7176424  44.4265273   0.4016828  54.5942950  43.0863517   1.0101888
  70.8531877  24.0735205  21.8548932  69.9362893  24.1867185  22.2226718
  70.9442246  25.0057079  21.4855635  60.6251604  33.8073976  -2.1834264
  61.1759782  34.5909570  -2.4107648  61.1450239  33.1196362  -2.6352065
  51.0560218  42.5318748  12.3685902  51.4122976  42.5617470  13.2717245
  50.0945443  42.6532566  12.4743035   1.1646181  68.1815068  52.6985690
   2.0348246  67.9691578  52.2545958   1.0809794  69.0780700  52.3124114
  60.1456894  45.0058901   4.8102524  59.9511550  44.0149290   4.8774068
  60.9715481  45.0470531   5.2819782  51.9679428  41.1307986  -2.1114526
  52.6206276  41.1500065  -2.8688505  51.2872777  40.5566501  -2.4721542
  44.8346377   4.0974112  56.6095446  44.6705091   4.3059360  57.5752358
  44.7179066   5.0090309  56.2318505  43.5250423   2.0104384  58.1835608
  43.0779908   2.9249657  58.2230257  42.7313941   1.5429995  58.6290424
  12.0239922  54.9554645  70.9049762  11.6284781  55.4251913  71.6353875
  12.9953856  55.1843629  70.9968935  71.8956182  29.7063757  11.0657449
  72.6769963  29.8049124  11.6271459  72.2329768  30.1562193  10.2402326
  23.6366171  21.6689178  62.9419976  23.9613542  22.4348947  63.4382695
  22.8067165  21.4561527  63.3896290  39.2872420   0.7965020  55.6206306
  39.5873787   1.3946715  56.3282801  39.6739570   1.3016834  54.8997724
  60.6154088  19.5697134   7.1488865  60.1868446  18.7015134   7.1582260
  60.0038865  20.1100273   6.6101209  69.4586809  36.6542785  12.0400626
  70.0986612  37.1845061  12.5754181  69.7502282  35.7545034  12.2920280
   5.8054022  43.6196050   8.0559657   6.4704471  44.2656375   8.3248967
   6.1885885  43.1464452   7.2887232  25.7429552  67.5460517  75.0311205
  25.1920822  66.7166341  75.0150967  26.3897085  67.2422889  75.7016541
  76.8477366  39.9991630  13.6682722  77.4333762  39.6466444  14.4045521
  76.8564162  39.1651682  13.1271695  74.8403591  42.1153608   9.4126605
  74.7369676  42.4437905  10.3047537  73.9507343  41.8241297   9.2085160
  71.8950305  25.8429450  67.3605728  71.0102666  25.9912642  67.0300885
  71.7317001  26.0212632  68.3510790  36.7949670   3.9012221  65.9698851
  37.7430667   3.5946030  66.0697620  36.9427874   4.7712573  65.5658724
  49.2748788   3.5244888  65.2193978  49.3383502   3.6780333  66.2093472
  49.1688959   2.5619496  65.2040888  74.7481955  42.9763783  12.2956270
  74.7527125  42.6943524  13.2516740  73.8088864  43.0580957  12.1549414
  54.8809316  22.6017469  65.4554590  55.0045576  23.0796061  66.3039226
  53.9851038  22.9032430  65.2472968  36.6982514  12.2900564  71.1855656
  36.4153458  11.9557907  70.3086379  37.4155397  11.6666479  71.4127237
  52.5524009   3.1087571  63.4758509  52.7227975   3.6236937  64.2915722
  53.0479781   2.2866003  63.7745775  32.9058082   7.6820434  65.0376026
  32.6721065   7.9791835  65.9694496  32.6785635   6.7481478  65.0919159
  44.0360770  16.8673673  74.2435082  44.5969085  16.1717517  74.6468388
  43.2007464  16.8159109  74.7869319   2.8007767  35.6006767  16.7718718
   2.3957765  34.6923551  16.8766787   3.1803226  35.4514548  15.8603328
  67.8901812  49.5254157  19.1510689  67.6196157  50.4249130  18.8229890
  68.4434329  49.7768564  19.9177236   4.8841696  39.2508685  11.9342624
   4.2811254  40.0488821  12.1459448   4.5037502  39.0383703  11.0319271
  57.3344224  48.0362999  11.1163028  56.4278850  47.6103701  11.0327588
  57.7669418  47.6718493  10.3415453  71.4191622  45.4840547  13.3886550
  71.1134977  46.0774903  12.6399091  71.8557403  46.1405780  13.9347253
  73.9896545  61.5214040  45.2637741  74.9061257  61.3148153  45.5884714
  73.5416710  60.7073639  45.4948249   8.2428952  66.2394210  52.8945509
   7.3486113  66.4281552  53.2206915   8.3703330  65.3394281  53.2721670
   5.8305779  56.8943363  41.7508681   5.6666192  57.2893583  42.6433103
   5.7657938  55.9423312  41.9316409  68.5979222  70.4798289  47.5387652
  68.9846178  69.7637063  48.0322511  67.6578689  70.3468748  47.6880473
   8.9631430  61.6262404  49.1001572   8.3038259  62.1652439  49.5783734
   9.5100170  61.2542685  49.9121580  78.7660171  58.8054392  40.4905856
  78.3545672  59.6875937  40.6879584  79.4217471  58.8213301  41.2692452
   3.5052384  68.3285107  43.9515079   4.4170952  68.4225163  43.6461235
   3.1444952  69.1622324  43.6616702  11.4805095  61.4578165  45.1768479
  10.8773920  62.1591816  44.7405063  12.2538081  61.9228567  45.3483867
   8.8627392  57.9119588  51.6536269   8.7267666  57.0601719  51.1352517
   8.1481574  57.6863773  52.3299283  76.8970380  52.5430375  50.4779371
  75.9625999  52.6559350  50.6702360  77.1743856  53.4156300  50.1418417
   4.2579179  63.0385409  57.4873515   3.4061595  63.4292222  57.7669858
   3.9934382  62.8022547  56.5663568   4.1953757  59.4178493  54.2502344
   3.9070308  58.8902415  55.0366057   3.4646871  59.1043203  53.6291514
   5.5438429  60.7106739  58.2261383   4.9317719  61.4517228  57.9911245
   5.4474541  60.7225849  59.1920004  79.3238449  54.3400921  51.0948154
  80.1863310  54.6862034  51.4578214  78.7069431  54.7302518  51.7108504
   7.7279591  52.0576176  56.9656676   7.2798122  52.8970245  57.0833017
   8.3062912  52.0556599  57.7752506  77.3118540  56.5437285  36.1321718
  76.9996023  56.1446176  35.3177085  76.5279729  56.3505213  36.7325058
   3.5008444  67.2102905  51.2112907   3.1170408  66.4305510  50.7256253
   4.3896955  67.1077962  50.9285606   9.2656350  70.7023435  59.0834278
   8.9931781  70.1998260  58.3362424   9.0134667  70.1399654  59.8493603
  10.1480856  68.6408847  38.2923222  10.0781343  67.6741676  38.2092887
   9.6319723  68.8644052  37.4394959  77.9688717  66.1800325  40.8017855
  77.6544659  65.5140848  41.4626698  77.2578656  66.8847407  40.9066173
  32.1564123   3.9570332  39.5197476  31.5066145   4.0722277  40.2863489
  31.4640435   3.8412399  38.8266485  76.1227049  64.6727152  36.6656678
  76.3704115  64.6134159  37.6004078  76.3717129  63.7668167  36.3563090
   5.8337310  58.3187669  57.0760185   5.9149549  59.1969072  57.5413767
   4.8913720  58.1412756  57.1219966  11.8784139  60.7776047  57.0609593
  11.4102751  60.6941770  56.1718567  12.4221434  61.5742575  56.8571581
  73.2038189  69.5697092  39.2653804  73.1764803  69.0682347  38.3911952
  74.1528835  69.7801837  39.2683173  29.4814226   9.4341272  44.1897758
  29.6555107   9.8774670  45.0441223  28.9461973  10.1645250  43.7726968
   5.9199597  60.4022558  46.3294646   5.6071575  60.1652771  47.2262723
   6.8490032  60.4183933  46.4889087  11.3016436  56.1816923  53.2186933
  11.7823898  56.9044051  52.6703660  10.4879218  56.6660358  53.3119500
  11.9709644  61.2816047  39.3253859  11.2561291  61.2618420  39.9858287
  11.5638538  61.9146638  38.6908795  35.2812869   1.1916391  39.1173810
  35.8857677   0.9002261  39.8749643  35.9230199   1.8014098  38.6833728
  29.0157006   1.4333900  34.0475709  29.7203335   1.5627615  34.7999065
  28.7081835   2.3119418  34.0295893  13.0419395  70.3736692  55.3003183
  13.8925686  70.6993242  55.6179460  12.4763047  70.6632351  56.0444855
   3.9650276  66.3870126  45.7869005   4.6227451  65.8578107  45.2634382
   3.5902238  66.8644139  44.9526738  25.3257267  75.4014871  48.8356372
  24.9539559  76.2898241  48.5390479  26.0559314  75.3089974  48.1772681
  28.5470737  -4.5316895  38.5434787  27.7756077  -3.9366973  38.6812471
  28.6666387  -4.3818755  37.5867551  11.5936234  59.1362534  49.4361622
  12.1861222  59.9230987  49.3327071  10.9626772  59.4956670  50.0914391
   4.0897710  38.5111102  32.6473796   4.6246887  37.9741522  32.0002256
   3.5779745  39.0549672  32.0070098  21.4890064  40.7513624  39.7997357
  20.7021347  41.3512289  39.7570483  22.0983329  41.3163489  40.2157782
   7.5435930  42.3294025  34.2543498   7.5814450  42.1004941  35.1800756
   6.8990177  41.6327072  33.8866254   2.5643171  29.0354297  33.1738731
   1.7161288  28.5394892  33.1899401   2.2894576  29.7255557  33.8919340
  10.0550183  37.3510590  38.3423517   9.4217409  37.7460208  37.6121673
   9.9932765  36.4130010  38.0743625   6.0037365  51.2010005  32.0285058
   5.8768755  51.7502310  31.1813969   5.9940663  51.9604297  32.6520902
  10.8312362  27.6159705  40.6291243  10.2269471  27.2000561  41.2803230
  10.2520851  27.9994272  40.0023071  73.7388574  46.0141666  11.9861808
  73.3399697  45.3106622  12.4946207  74.1642799  45.6090444  11.2381134
  73.6437020  28.4306555  41.9843456  73.0960905  27.9651185  41.3502812
  73.0198113  29.0754189  42.3721216  71.6214824  49.9603333  40.8327317
  72.0936944  49.8453569  41.7046527  70.9988560  49.2482973  40.9028182
  10.7450926  31.8587064  32.2798162  10.5466536  32.4296331  33.0598394
  11.1859804  31.1182407  32.7057449   4.4777104  44.9902495  28.9393331
   4.4076947  44.4458454  28.1449575   3.6503017  45.4511307  29.0115898
  70.0005575  37.4437402  46.3100685  69.9855579  37.3327007  45.2908432
  69.2628948  36.8838242  46.5340848   0.7128433  36.4006626  46.1811740
  -0.0641459  36.1072610  45.7155646   0.8334524  35.7581929  46.8797263
  -0.0415440  35.8423619  41.9009057   0.9264735  35.9781551  41.9056881
  -0.1744861  35.5618101  40.9396859   3.9066718  29.7423835  26.3084410
   3.6362900  30.6270900  26.3401490   3.6458812  29.3578598  27.1575092
  73.9078910  38.1801602  35.6375467  74.3992105  39.0761796  35.7891241
  74.2642568  37.9851873  34.7470817   1.4610025  28.6823512  41.6384015
   1.9374219  29.2167725  42.3562398   0.7121032  28.3852513  42.2425793
   9.9026128  52.9341509  48.2776227   9.7148347  52.1277647  47.7199506
   9.1141024  53.4559824  48.1112309  79.3791264  41.1362234  55.9187107
  79.8675891  40.5946313  56.5369245  79.9521980  41.2924256  55.1595064
   2.9820908  44.6339236  55.3178656   2.6801952  43.7048005  55.3200532
   3.4950817  44.7128088  54.4933569  12.6074662  58.7588851  20.8721999
  11.7257992  58.3955134  20.9323394  12.7707457  58.9158225  19.9149009
   5.3636262  49.4667854  46.2613118   6.1665701  49.6610791  46.6760363
   5.0204865  48.6332248  46.7007752   2.3381240  48.4283279  41.0810601
   3.1472482  48.2325976  40.5219216   2.2479001  49.3800211  40.9606112
   8.5546930  52.3092734  22.5150231   9.5006445  52.1463585  22.3996854
   8.4481896  52.3202057  23.4654744  16.3333668  52.9184735  39.5765558
  16.7446856  52.0781382  39.8182554  15.5942247  52.5991028  39.0438201
   1.2172678  55.4731898  21.5760329   1.6244004  55.4611358  20.6986448
   0.7809665  54.5810564  21.5885510   2.3256010  56.1291677  34.6220831
   2.8544818  55.7285177  33.8988371   2.6519212  57.0380091  34.6899672
   0.2078160  51.9390085  35.5624048   1.0682998  51.4547841  35.5471831
  -0.2862896  51.3682258  36.1310854  14.9898514  51.6366915  51.2724529
  14.9494147  52.5772244  50.9546256  14.1683138  51.2226991  50.9225963
   0.0115801  55.8065756  33.1061483  -0.1422989  54.8808657  32.7873409
   0.5296789  55.6116631  33.9303582   8.0153376  57.8290788  38.5592796
   8.3577294  57.6297026  39.4336752   7.0618802  58.0037595  38.7701576
  10.6326149  42.5497318  42.7030698  10.3401748  43.1468461  43.3763063
  11.5743346  42.9898870  42.5584201  69.0375342  52.0951279  37.1420578
  69.0057082  51.7538863  38.0506840  69.8936814  52.6203277  37.1477223
   0.6515650  61.3476617  22.9105906  -0.2110428  61.0146843  23.0303280
   1.1915631  60.6244615  22.6589928   7.2475930  40.1481750  40.4757320
   8.1827871  39.9261362  40.4217550   7.2434577  40.8442622  41.1732997
   8.3074680  50.6910851  41.1028909   8.3705478  50.1685778  41.9405870
   8.3828372  49.9399564  40.4883497  79.3464679  56.4163561  28.4682597
  78.9320225  55.7440991  27.9024805  79.0872530  57.2366722  27.9831087
   6.2197260  46.6873915  49.1511398   6.1377194  47.1247116  49.9792383
   6.3257479  45.7495492  49.4281121  16.1204250  62.8120860  41.2511883
  15.4246641  62.0896700  41.0738193  15.5038932  63.3611443  41.7787980
   4.8250886  62.4483617  40.1804349   4.2692415  62.9341770  40.8530301
   4.3074360  61.6107473  40.2304558  10.3706790  55.4547651  37.1106072
  11.2038282  56.0077283  37.1844158  10.2032306  55.4085295  38.1309303
  26.9026491  59.5668684  33.7020134  26.6297648  60.2305886  34.3270066
  26.1353114  59.6193436  33.0770070  78.4751238  58.0392884  51.7168178
  79.4284943  58.2318499  51.9633632  78.3149026  57.2123031  52.2361154
  10.1445945  67.2368504  59.2396055  10.0561750  67.1137265  60.2118200
  11.1145371  67.3562836  59.1391873   5.2324251  56.6619847  35.6632848
   5.0656640  56.6054463  34.7060507   6.1375616  57.0048563  35.7123853
   6.0121834  48.3401676  34.8823880   5.8094335  49.1076068  35.4672412
   6.9738565  48.3902278  34.9302411   0.6637416  60.2114435  28.6717096
  -0.2052899  59.9395773  29.0316575   0.2997841  60.5458287  27.8046410
   7.6658993  56.6560463  45.3648298   7.0447045  57.2454583  44.8382757
   7.8679334  56.0352126  44.6476282  13.5828238  50.8237643  46.6120817
  14.3687140  50.4965447  46.1271055  12.9072524  50.8530275  45.9399751
  15.1190496  64.4531970  39.2396974  14.6177250  64.6700876  40.0574439
  15.6916261  63.7433097  39.6029580   7.0005690  50.3087728  54.8270336
   7.1140499  51.0609128  55.4995606   7.2859902  50.9031934  54.0179342
   3.4475717  47.1531456  44.4987399   3.9794781  47.4788431  45.2498971
   3.9584624  46.3809055  44.1981274   5.3580010  54.4988980  50.1510851
   4.9979480  55.2645955  49.6148164   4.6506981  53.8541393  49.9103489
   1.3441031  52.4529606  49.8548594   0.8384722  52.3397649  49.0039989
   0.6403421  53.0614876  50.3046727  68.4593009  47.6506357  36.9448501
  69.4335264  47.4678644  37.2657543  68.6411110  48.4819475  36.4769180
  75.7251666  55.9253454  28.0060178  76.5126505  55.4111609  27.7604568
  75.3855624  56.1323568  27.1075658   8.6205096  57.2424498  41.3814722
   7.7121328  56.9710721  41.6099209   8.7395309  58.0696721  41.8349759
   8.8081024  46.3987312  37.8855852   9.5339641  46.9287213  37.5541674
   9.0422128  45.5106787  37.6675091   0.6455028  38.6697664  45.0384511
   0.5035855  37.8290085  45.5631109   1.4049797  39.0375077  45.5382012
  12.8681163  50.9839911  24.4488072  13.5849148  50.8296550  25.1051022
  12.4112937  51.6970503  24.9568462  77.4581435  53.0320638  20.2117649
  76.8850235  52.5951062  19.5431756  76.6976216  53.2120945  20.8777819
  14.9764655  55.5826286  46.1820074  14.7062302  54.7228948  46.5391763
  14.0474877  55.8574258  45.8115626  11.0068531  52.5937189  33.2454830
  11.5407342  53.4247025  33.0744726  10.5487978  52.8291153  34.0615511
  26.5418216  -6.8440552  40.7813045  25.8486664  -7.5825922  40.7582509
  27.3292072  -7.3913153  40.5184704   4.2856014  54.1812986  41.4409668
   3.9581300  54.7764049  40.7196335   4.5551949  53.4173594  40.9869974
  73.4655040  50.1610339  38.4836518  72.8066182  50.1946890  39.1941293
  74.2244199  49.6922066  38.9407995   6.3736403  58.4239427  32.3324380
   6.1128759  59.1213054  33.0072152   7.2797199  58.7281290  32.1521599
  12.3406293  55.3144561  41.5026123  13.3314113  55.4960125  41.3967197
  12.3897289  54.3298390  41.4947333   0.3389841  53.2803198  30.2841975
   1.1120301  52.8122537  29.9476057   0.6884233  54.1994574  30.1851889
   8.6724568  48.2865516  35.1467079   8.8228767  47.4071015  35.5291420
   9.5115021  48.7421075  35.2943654  14.4564263  51.7045446  26.4286229
  15.2577296  51.8331854  25.8690599  14.3610228  52.6328917  26.7149829
  25.3057596  67.9781610  38.1868843  25.8560432  68.5567229  37.6321785
  24.7606763  67.4875153  37.5859456  11.1920519  59.5024926  36.3512779
  12.0865230  59.6365780  36.6597847  11.0170649  58.6411567  36.5868664
  77.2827978  38.4351267  49.7611382  77.2624301  37.8416377  48.9098046
  77.4863290  37.7060073  50.3884750   9.8604214  53.2378535  35.4858896
  10.1390168  54.0005964  36.0587450   9.5892691  52.6426514  36.1885715
   5.1168430  55.4241043  27.7613043   4.7455396  56.0489230  27.0983253
   4.9472577  55.8503572  28.5978745  78.6270846  51.2388196  31.5722435
  79.3258997  50.5330218  31.7243622  79.1802392  51.7955097  30.9691321
  14.7068026  41.8465122  51.1980949  15.4959337  42.1730040  51.7498867
  14.0793750  42.5574976  51.4484837  18.3547227  59.1693648  32.0365575
  18.3936574  58.5819778  32.8054373  19.2754254  59.1096181  31.7163699
   8.7220683  51.6195900  50.6817795   8.9686480  52.0928226  49.8811460
   9.5224200  50.9796672  50.7191984   7.5404549  51.6917376  44.4174476
   7.8818809  51.3266248  45.2430113   7.1668834  52.5600205  44.6917147
   2.9612820  47.8533301  53.0000726   2.7282473  48.7259287  52.6170040
   2.0869122  47.5591537  53.2443122   8.0191270  55.1214262  43.3194142
   9.0139566  55.0905439  43.4124101   7.9659268  54.6280606  42.4394500
  17.3204993  50.5124699  50.9767879  16.4521980  50.9096800  51.0839868
  17.1226383  50.0420737  50.1045932   2.5280303  66.2869722  36.9711797
   1.9240178  65.6785690  37.4600712   2.4934374  67.0273676  37.5593128
   3.4155584  65.7506863  25.2528936   3.3586203  66.4909263  24.6198735
   3.2093678  64.9974805  24.6525816   3.2517622  58.3356826  36.3019195
   3.8947410  59.0653827  36.5487036   3.8964829  57.5671247  36.4753662
  76.1144618  41.0291098  29.3524926  76.9191598  41.3909924  28.9140339
  75.8725424  41.7770628  29.9376018   1.1093937  59.6789392  36.8734900
   0.9631030  60.3161651  36.1764820   1.7869833  59.1110880  36.4710707
   7.6032404  54.1719927  47.6726646   7.8160349  54.5637560  46.7859655
   6.9266079  54.7807167  48.0140073   0.7176606  66.0172943  43.0771663
   1.2086031  65.8636349  42.2450517   0.5278792  66.9695554  43.0337993
  26.0540391  -5.3626081  43.4514430  26.1442122  -5.6715971  42.5227835
  25.7586045  -6.0831986  43.9730255  12.1240784  60.9616769  22.4312286
  12.8948605  61.4578578  22.0955066  12.2721418  60.1518289  21.8670917
  11.0204508  44.3572014  45.0526974  12.0130354  44.2178536  45.0030833
  10.9859538  44.8115623  45.9353801   5.8490206  54.3396460  44.7732855
   6.3871020  54.8941747  44.1676552   5.3493132  55.0337259  45.2948083
   7.3639452  43.6014185  25.9850084   7.8687080  44.3371106  25.5303379
   7.5212167  43.9164594  26.9157495  79.2630070  45.3746856  45.7496415
  78.8481165  46.2021290  46.0132411  80.0644216  45.4444944  46.3489292
   4.6508132  45.9299632  25.7879479   4.0782186  45.1617536  25.9985821
   4.3045643  46.5855928  26.4277223   5.1756366  59.8031522  34.0448549
   5.5546592  59.7672915  34.9561888   4.4120096  60.4301334  34.2352646
   9.5474077  54.1933765  29.9725494   9.2713579  55.1544413  29.8671581
  10.4221448  54.3261384  30.4167128   8.4376750  46.0634014  41.5109523
   8.3736533  46.6985549  40.7372102   7.4660631  45.8649406  41.6511621
  11.9617377  63.0902743  29.2464446  12.6327874  62.8297522  28.5653819
  11.1851760  63.0807022  28.6840124   5.3910602  58.2969913  39.4318736
   4.8021132  59.0681865  39.6295852   5.5406863  57.9867973  40.4134637
  78.5909615  48.4562472  36.5629192  77.8596999  49.0652677  36.8362219
  79.2866402  48.7256902  37.1940035   3.7746137  47.4420595  38.2277639
   4.4177488  46.6328216  38.2324957   2.9605691  46.9845227  38.5178185
  78.4726698  54.1509895  56.5506664  77.9877205  54.0140720  57.4161970
  78.6743573  55.0989256  56.6403916   5.3772180  48.1008774  42.1126276
   4.8055286  48.8499840  42.4082432   6.2650308  48.3989402  42.3296930
   6.4441564  62.7193172  33.7489122   6.7339320  63.6118894  33.8271679
   6.2097512  62.7029906  32.7988434   9.5308808  43.2035864  55.8971850
  10.3668639  42.9077997  55.5595522   9.7656340  43.7736905  56.6293904
   9.1283549  51.5696153  37.5921278   8.7082376  52.3135507  37.9607044
   8.3708912  50.9356503  37.5421897  14.8111451  50.4611976  41.4553907
  14.5093408  51.2818069  41.9222076  15.5614499  50.2140114  42.0343375
   3.7481730  57.7102692  29.5122868   2.9014541  57.1972646  29.5415048
   3.7068893  58.0326132  30.4860862  78.2835620  55.5807117  43.8686762
  77.8714105  56.3488570  44.3003556  77.4422585  55.2195293  43.4598409
   0.0697860  44.8387820  22.0327657   0.6192396  44.5154633  22.7456769
  -0.1653550  45.7279976  22.3660662  69.3151062  54.5703285  33.2702834
  68.8363280  55.3823385  32.9706167  70.1068355  54.9308624  33.7277315
   8.3854179  53.5813971  41.2323839   8.0351258  52.6192646  40.9980168
   8.4100935  53.8595064  40.3111329   8.3109833  61.6778634  28.8032664
   8.0226941  62.6788213  28.7253366   7.4353139  61.3524488  29.1788122
   8.1424836  64.8826133  34.5071001   8.3963187  64.5556137  33.6127175
   8.9815613  65.3756762  34.6637893  73.6136183  44.8891924  28.9597115
  73.4646156  44.5652693  28.0179478  74.6387353  44.7300454  28.9426368
   7.7425697  41.6389014  43.2096313   8.7213093  41.4265830  43.1550876
   7.7986787  42.5329135  43.6816069   8.5327799  66.3428728  29.9348416
   7.8876953  66.9521014  29.5701287   9.0252204  66.0338110  29.1436942
  21.3149644  65.8125325  26.8363159  20.6106013  65.6330591  26.1813170
  21.8038445  64.9060531  26.8013171  32.4789210  -3.0195668  49.5988419
  32.9882046  -2.5017639  50.2389556  32.7522074  -2.5645878  48.7696458
  13.3014370  46.3484311  28.6259800  13.0096465  46.7522212  29.4671736
  14.2110448  46.0388656  28.9308136   0.9809709  54.3762480  53.8714476
   1.7507374  54.5745394  54.4701166   1.4009570  54.6811758  53.0221531
  14.5235367  62.1835135  37.4413821  14.8118565  62.0829071  38.4023766
  13.5259085  62.1261976  37.6110199  22.2068197  62.8785351  41.3306397
  21.6746788  62.5644040  42.0445053  21.7755374  62.4699214  40.5411994
   7.4737293  62.1310501  40.4823028   6.5569158  62.3240757  40.6309065
   7.4248593  61.4932839  39.7523358   8.8296529  60.5808759  46.5378501
   9.6544390  61.0277337  46.3096945   8.6708896  60.8626789  47.4758420
   5.5600492  42.3768172  45.0813639   6.0943004  41.7698967  44.5399994
   6.2517596  42.6416796  45.7370015  18.0795990  59.8901519  39.0528629
  17.7595362  59.4118235  39.7986090  18.6414210  60.5644320  39.4841256
  17.6166620  62.1886727  43.4603236  16.7343518  62.4880593  43.7172674
  17.6455877  62.4928422  42.5342491   3.5470255  43.1445698  46.6038346
   4.2775771  42.7831653  46.0622538   2.7832863  42.6316281  46.1856774
  14.7868223  42.8221016  43.4127503  14.6104172  43.0533117  44.3460120
  14.1397367  43.4567073  42.9614026  75.5757658  64.9955185  33.2440789
  75.4791873  64.0320972  33.2505687  75.5987925  65.2171208  32.2930928
  26.6603129  63.2678141  46.7556734  27.0918659  63.7748222  46.0440953
  25.7654092  63.6843158  46.8377247   4.4537879  49.7713329  36.9032799
   3.5790789  50.1652493  37.2616027   4.4261811  48.9097962  37.4558789
  11.4658206  62.2841692  31.8405404  11.5862744  62.4358977  30.8615681
  12.3140327  61.8521305  32.0514536   9.2526211  54.7729868  21.8118883
   9.2789699  54.0202186  22.4170079   8.3870066  54.6042037  21.3851644
   1.6229673  49.2373747  26.5158573   1.0097336  48.8202635  25.9408154
   2.1060677  49.8400122  25.9337548  20.5753356  43.9750017  40.6144334
  19.8597238  43.4814127  41.0719605  20.0494268  44.2858003  39.8101499
   4.5524787  54.1729439  36.2576188   4.5716679  53.9010698  35.3014143
   4.8671169  55.0847131  36.1605050  75.4897400  50.2697615  32.9200853
  75.6819453  49.3095546  32.9488423  75.6687372  50.4673241  32.0028620
  75.6603578  51.4748473  35.4463202  75.9800255  51.0170200  34.6756290
  76.1274852  51.0088209  36.1821882   2.8699539  51.2659960  34.9492180
   3.5741222  50.9113809  35.5025369   3.3150680  52.0767731  34.6410725
   6.3499645  51.7447509  47.8906937   5.4318549  51.9809429  48.1526993
   6.7999286  52.6309843  47.9773094   4.6745695  57.9135259  26.2019329
   5.1363128  58.7538641  25.9106555   3.9537568  58.3207868  26.7360654
  76.6256276  46.3420494  43.6808626  77.3003517  46.8202039  44.1819527
  75.8794946  46.3596530  44.3168946  16.6195519  42.7621483  37.4532356
  17.0273356  43.4511087  36.9379229  16.6113935  43.1961338  38.3494104
  70.7020842  56.6874503  38.7219078  70.0759415  56.9452541  37.9985429
  70.6468087  55.7458812  38.6702173   2.2218703  51.1868441  30.0608323
   2.4822132  50.3144611  30.3334925   3.0099060  51.4511831  29.5220438
  10.1954806  55.8782155  39.7703869  10.9983292  55.7806388  40.3264149
   9.5846159  56.1961067  40.4672391  15.6567926  43.9656360  33.7398633
  16.1124851  44.4178497  34.5067233  14.8176289  43.7266028  34.2446670
   8.5050454  49.7786916  25.6310863   8.1819336  49.5531254  26.5317135
   7.8262418  49.2957119  25.0847043   8.7640787  48.3506247  32.2281726
   8.5521850  48.6836084  33.1061037   9.4310322  47.6852018  32.4473464
   0.4012185  46.3657654  28.6071613  -0.0699256  47.0992099  29.0371182
  -0.2742507  46.1413388  27.9233820  14.1937911  55.7410078  54.2921324
  13.2331070  55.8946927  54.2629962  14.4918508  56.6748760  54.3744788
   2.6985401  35.9246778  24.7918681   2.0933843  35.2987043  24.3966483
   2.2412358  36.1302130  25.6051140   0.4766406  52.8008572  38.7511186
   0.7531076  53.3464284  39.6003014   0.6953406  53.5198960  38.1107199
   6.2455954  39.6952389  30.0231735   6.2355187  38.7645336  30.3442364
   6.8972942  40.1146993  30.6201854  16.6169697  71.1146926  34.7400759
  15.6179896  71.0677444  34.6196997  16.8614398  70.6754309  33.8959280
  15.3349621  72.3174387  25.6312320  15.4952218  71.8155769  24.7833494
  16.1628000  72.1009876  26.0421066  12.2100286  70.7793958  31.6242457
  12.5120018  70.0544102  31.0222133  11.7968690  70.1871507  32.3221420
  33.0173643  -0.1536049  34.1629226  33.3256027  -1.0281743  33.8251471
  32.7878459  -0.3873424  35.0695907   5.8734448  64.9642000  44.2327244
   6.6935585  64.8555531  43.7343089   5.5950486  64.0284393  44.2314950
  40.4846281   1.2328272  18.9545122  41.2397317   1.0295570  18.2973549
  40.4521053   0.3441650  19.3804093  15.8319596  64.9641670  28.9468914
  15.8054612  64.1548317  28.4287659  16.7517651  65.2532745  28.6469664
  21.8022057  61.7758400  29.2845681  22.7201101  61.4953253  29.6438731
  21.5249485  60.9738124  28.8273020  20.2060449  69.9556403  41.9368027
  19.9583872  70.0080228  41.0028174  19.4452904  69.5193485  42.3275541
  13.2901826  65.7593271  27.4278796  14.1312859  65.6983033  27.9911406
  13.2003375  64.7795251  27.2533939  33.7428701   1.7108893  36.4480510
  34.3590861   1.4870839  35.7418007  33.7822092   0.9766893  37.0791693
  10.0365356  65.7207962  27.6256439   9.5522285  65.8632793  26.7796005
  10.8958397  65.4447459  27.2213985  21.0492458  71.1003880  53.8586263
  21.6711925  71.8271821  53.7094481  21.3089471  70.8070519  54.7798347
  27.5822809  -3.0136807  36.0155091  26.9498472  -2.9778698  36.7513486
  27.5265037  -2.0606888  35.7266246  10.2028025  62.1189591  35.9936379
  10.4799333  61.1899099  36.1621746  10.0088578  62.0808688  35.0401256
  79.3131217  56.1747932  39.9608229  79.1175914  57.1804644  40.0218452
  79.6483469  56.1443176  39.0145911  12.1846273  70.0150292  39.2333531
  11.3943402  69.5270189  38.8514856  12.7096659  70.1636246  38.4077279
  43.8718905  -0.5583456  40.9475478  43.6764777  -1.0855236  41.7787017
  43.0833959  -0.7949164  40.3967844  18.9464037  59.4932383  28.7436156
  17.9839900  59.6627529  28.7551685  18.9970057  58.7761143  28.0954416
  19.2373167  70.2716599  39.1432051  19.8500059  69.8209730  38.5169116
  19.6103368  71.1496445  39.1719656  34.3616708   6.4287767  37.0417411
  35.2526795   6.8064205  37.1644227  34.3818791   5.5727821  37.5557974
  19.1546961  67.8154638  33.6657079  19.3265700  68.7812460  33.7022429
  19.6600963  67.6005448  32.8554182  17.3597254  66.3798893  22.9227342
  17.0809230  65.4726825  22.6516556  17.4710914  66.7905916  22.0321209
  44.0094522   0.6001278  28.5354155  43.7948736   0.4601935  29.4868557
  44.7599477   1.2322086  28.6452137  19.5948850  73.6109202  47.3115068
  19.6127773  73.2245020  48.1718570  19.6050945  74.5580664  47.5376051
  46.3635114   4.5666766  49.4507207  45.9513872   3.8617816  49.9295900
  46.8191648   4.0059963  48.7443809  15.2813376  70.6889805  23.4712961
  15.1305958  69.7496322  23.8026052  16.1963458  70.5618794  23.1152470
  14.0228533  70.3505353  37.0118551  14.8542718  70.4582840  36.5103568
  13.3783810  70.7416249  36.3412359  37.5301214  -1.1829755  37.8618555
  37.6349039  -1.7336934  38.6380251  36.6772507  -1.5023576  37.4978873
  22.9061068  61.8021662  33.9778309  22.6064795  61.7990688  34.9382843
  23.5560495  62.5675197  34.0472336   2.1642325  65.7721190  40.7247906
   2.6707438  66.4628988  40.2406907   1.8000469  65.2480815  39.9826822
   8.6600040  56.8404992  29.7353107   8.3251673  57.4603825  29.0463611
   9.0207293  57.4534545  30.3949510  13.1759353  70.5793836  20.8305114
  13.0113971  69.9272021  21.5313403  14.1531286  70.4430062  20.7012858
   9.1198555  69.5416549  35.7488854   8.5751051  68.7261156  35.5985726
   8.5356334  70.1183884  36.1906408   1.0073658  63.0301034  42.4211809
   0.2760939  62.4430326  42.6324767   0.6002871  63.8857079  42.5914044
  32.0255340  67.4535827  33.8820706  32.2606887  66.5427866  33.9466951
  31.2671069  67.4910123  33.2487193  15.4077930  59.3607366  58.0273025
  16.1204574  58.9237243  57.5739118  15.3296051  58.7482184  58.8238421
  49.1823318   4.0001425  53.0436309  49.6952188   4.7267892  53.4524351
  48.5113229   3.8036174  53.7408369  35.1391172  -2.2323153  36.9283211
  34.2287322  -1.8328002  36.7610061  34.8356007  -3.0266359  37.4325900
  11.4819145  55.7909340  31.2078462  11.9217081  56.6376847  31.4765177
  11.9025068  55.1771952  31.8760234   3.3371143  58.4440950  32.0680539
   2.3625462  58.7178871  32.2074173   3.7594957  59.2512409  32.4272333
  14.0228344  60.4933790  32.1479633  14.8998280  60.5091658  31.7666768
  14.1085280  60.9378574  33.0171604  24.7517426  70.4674441  12.1601232
  24.4047564  70.8292252  11.3795608  25.0338049  69.5376977  11.8558878
  14.3298710  67.4108285  35.1791479  15.2857286  67.4395754  34.9054549
  14.0569295  68.2991534  35.0016691  13.7212784  67.1985677  40.8593429
  13.4009570  67.9632607  41.3500742  13.4777984  67.4270975  39.9466158
  20.0414364  74.0021515  40.6205549  19.0729576  74.1741190  40.6597782
  20.3516057  74.8642809  41.0724391  11.8603678  51.5659511  31.0173314
  11.9371248  50.7252585  31.4623848  11.3962326  52.0594705  31.8107123
  24.1010697  66.5448379  35.8753410  23.1929986  66.9510462  35.9570873
  24.4096492  66.9814889  35.0375289  16.1339475  60.0027254  28.4396912
  15.7310843  60.1555410  29.3033827  16.0523154  60.9058575  28.1058636
   7.5341834  53.8652816  38.5153704   6.5644993  53.9024644  38.3567018
   7.7300379  54.8099973  38.2696339  29.7762826  -4.1628187  24.8817470
  30.5940423  -3.7631286  24.4792534  29.1146281  -3.5509463  24.4336324
  11.4365004  69.3069948  33.7261315  10.7168804  68.6594424  33.4738272
  10.8355833  69.9616537  34.1906135  17.3927625  72.9551153  27.5594732
  18.0158660  72.3261587  28.0493550  17.8433912  73.7896300  27.7317065
   3.8214997  64.7624330  28.9267851   3.9971631  65.5204158  29.4897380
   3.4697864  64.1486587  29.5960001  49.7975877   8.2589730  28.2353239
  49.2776046   8.4437886  29.0462824  49.1258339   8.0516230  27.5650477
  37.0711398  -0.0493896  31.7125361  36.3595007   0.2082682  31.0462915
  36.4956722  -0.6248412  32.2721955   7.3752234  70.5362934  37.9336668
   6.4951724  70.2352763  37.6062241   7.3908776  70.0743694  38.7886340
  17.7408171  73.0783465  43.5572976  18.3316911  73.8228551  43.7774139
  18.0689766  72.3959285  44.1615121  14.2432771  62.4053949  21.4216779
  14.7679826  63.2657948  21.3828285  14.8404710  61.9413622  20.7719689
   9.4314113  60.3386337  41.6943363   9.3070039  61.2605173  41.8725719
   9.0403109  59.9415305  42.5768724   9.1914555  63.8476899  39.5291495
   8.8186277  63.7644572  38.6452561   8.7025846  63.1216177  39.9659570
  60.9633673   5.2147984  37.7415391  61.8242313   5.3479145  38.2034831
  60.5464540   6.0720731  37.9519435  10.0972734  58.8141293  31.1749304
  11.0904150  58.6199418  31.3190011   9.8455424  59.0821391  32.0841188
  44.6555081   5.5967520  38.7480961  44.2744622   6.5067982  38.5648895
  45.4491277   5.9200080  39.2409021   8.2497147  69.0901805  40.1688926
   9.0958999  69.0042160  39.6164269   8.3987411  69.9878794  40.5047145
  14.1087109  64.7066173  41.9215954  13.3506976  64.3969399  42.4948054
  13.7944992  65.6572080  41.7714422  13.6785512  66.5160555  38.0462201
  14.1766396  65.7272654  38.3248099  13.3963467  66.2852818  37.1880716
  47.2239884   2.7565436  32.6613694  46.6569303   2.2913798  33.3021414
  48.0466576   2.2976046  32.7543304   6.5256063  63.9218071  46.7195316
   7.4796724  64.2319459  46.6652404   6.1245245  64.5924077  46.0591400
  26.1590004  68.7720981  44.3941010  25.5262299  69.1634295  43.8223562
  26.3740840  69.4616081  45.0330606  15.4854265  72.7737762  29.3922720
  16.1557663  72.9278762  28.6529486  14.6753533  72.5480937  28.8424076
  39.6631482  -2.2745834  23.3928766  40.3125807  -2.6960033  22.8681015
  39.8972824  -2.5189873  24.2634468   8.1189056  59.5565936  43.9436167
   8.2501979  59.5497611  44.9550165   7.4102167  60.2776806  43.9052383
  51.6570198   2.7304728  20.4063598  50.7789035   3.1317488  20.6574109
  51.6112415   1.8716936  20.9297167  33.2562796  -4.4016501  45.1574277
  33.3124974  -3.4923733  44.8262397  32.5771859  -4.3742838  45.7927847
   5.2747886  69.1650752  41.7899325   4.6818399  69.7124549  41.2350291
   6.1503793  69.4109285  41.4273523   3.5541130  64.0266612  42.0497434
   3.1256923  64.8786257  41.7724022   2.7408376  63.4917508  42.0805956
  14.1741433  69.6243569  44.5868308  13.3899004  70.2222031  44.6571675
  14.5916256  69.8933378  43.7377910  70.7845050  66.4688271  40.2093541
  69.9828045  66.0047292  40.3289238  71.4383931  65.9864081  40.7414088
   7.6171314  60.9999972  35.2068167   8.3715989  61.3203016  34.6572028
   6.9234674  61.6247146  34.8853164  19.6281913  74.6506685  26.0770228
  18.8451230  74.2133261  25.6891365  20.3247535  74.0617831  25.7497847
  46.1230935   2.3749936  28.8163933  46.8579968   2.3024602  28.1574711
  46.5759361   2.9879386  29.4762064  39.7686380   5.3874001  31.8265413
  40.0606084   4.7243014  31.1999113  40.6687890   5.7401145  32.0865028
  28.2379693  65.3804790  23.3503302  27.7888974  65.3337553  24.2181731
  27.7050037  66.0547794  22.9120885  46.9383144   4.7189697  30.6028028
  47.9121320   4.9771680  30.5714046  47.0342076   3.9590129  31.2085767
  17.3687973  62.8786156  32.2790073  17.6505739  63.8314303  32.0999608
  18.2517490  62.4489852  32.3715462   8.9681219  70.1000232  43.4682421
   8.0470289  70.2474612  43.7896635   9.0512052  70.7365379  42.7519278
   2.0864391  45.3793075  46.8179656   2.6648663  44.5398295  46.7900340
   2.7904021  46.0009663  46.7077427   0.7638207  59.3180460  42.8418515
   1.5476163  58.7860955  42.6896533   0.8208752  59.4623707  43.8205432
   6.9590669  62.3948591  52.6042323   7.8636254  62.5508049  52.7378647
   6.8255993  62.3325507  51.6048702   9.4796998  70.6936825  28.9545284
   8.6044143  70.8715131  29.4118118   9.1308846  70.0953551  28.2638444
   6.5316176  48.2532543  24.2952935   6.1181829  47.3461049  24.3734469
   6.5168965  48.3347896  23.3267912  12.4237769  57.0499747  37.1315590
  12.9803640  56.2481715  37.1859873  13.0279428  57.6452891  37.7123236
  15.0232915  62.7125112  33.6646135  15.7350953  62.8878080  32.9755879
  14.8467408  63.6598442  33.8788381   4.4731823  61.7162291  29.0387778
   4.6229946  62.2045098  28.2337707   3.5390209  61.8196806  29.2060086
   5.1716615  67.2632567  37.4033959   5.2547207  66.6594528  38.1912927
   4.2294553  67.0654695  37.1654445   7.1358261  57.4978319  59.8549039
   7.6968613  57.0697713  59.1679433   6.3270421  57.0046129  59.7878718
   8.8867096  58.7990662  33.7338385   8.8699032  58.0086243  34.3489246
   8.4971171  59.4732429  34.3047123  17.9017837  66.3494568  27.5230490
  18.3884943  67.2105408  27.2771831  18.1697314  65.8239549  26.7132135
  14.1474687  59.8067662  43.0415132  13.6164940  59.2781332  43.6730216
  14.5433420  59.1473337  42.4503309  17.1289669  67.7840868  35.5727019
  17.1895725  68.5424173  36.1667177  17.7793232  67.9580934  34.8643116
   9.8110872  66.6063660  43.8186954   9.0688598  66.4572712  43.1858004
  10.3178760  67.3455770  43.3947727   5.9362630  63.3997703  31.0050637
   4.9981512  63.5060261  31.0573056   6.0219913  63.0660483  30.1015996
  19.6453262  70.4852941  33.1206272  19.3183308  71.3763329  33.5291881
  19.5154458  70.7385911  32.1802406   9.0869389  69.2859380  46.3709999
   8.5077034  68.9348512  47.0135854   8.5135763  69.4984202  45.6308404
  32.7478612  74.8011008  35.8356981  32.8482122  73.8435838  35.7632030
  33.0556109  74.8798774  36.7966981  10.6964778  54.9173252  43.6546318
  11.2739982  55.4632366  44.3138397  11.1064673  55.2675634  42.8295106
  13.1648768  72.4791890  49.4756221  13.7127497  72.1296013  48.7353316
  13.7104309  73.2528233  49.6898162  19.1458701  65.2750987  42.5632513
  18.3527570  65.4291381  43.0287929  19.8117302  65.2949850  43.2765873
  11.9041036  63.5164408  37.5716778  10.9408998  63.4020713  37.3061231
  12.2544075  64.0375315  36.7794909  12.2413437  57.9363686  58.2199017
  11.3592652  57.8998130  57.7305313  12.6450445  58.6780420  57.6894815
  35.2912541  69.5426530  41.5717624  36.0364339  70.1288400  41.9041347
  35.3359852  68.8295456  42.2317551  22.3943619  74.8469217  22.9276679
  23.1940061  75.1048963  22.4042957  22.1262481  75.7461528  23.2547466
  32.0559075  71.8546741  43.5787615  31.5776247  72.2983046  42.8071337
  32.2039393  70.9845682  43.2266159  38.8864802   8.3442592  34.6542044
  38.3119989   8.9203929  34.1367228  38.5944678   7.4614033  34.2989934
  11.6979624  66.0716218  50.1450046  12.5165696  66.4222719  49.7044149
  11.6587136  65.1734172  49.9245224   2.5825168  62.7402046  20.0006218
   3.2365075  62.0928461  20.3961110   1.8015561  62.1930610  19.9058080
  18.8004799  65.1442675  39.8724507  18.3571096  65.9999350  39.9641633
  18.9093242  64.9084933  40.8041273  27.0935191  68.5101494  35.2901994
  26.9284516  69.1656179  35.9810681  27.7311498  69.0120222  34.7247073
  16.6956252  56.9724522  31.6081489  17.0489933  57.8722982  31.6274254
  16.3627413  56.9836120  30.6778493   9.4675954  61.7872553  33.4211931
   8.9376668  62.3845929  32.7592978  10.3172069  61.7957778  32.8443471
  25.0486499  75.0326837  44.4170727  25.1718510  75.3480389  43.5290879
  24.2384428  74.4387716  44.2817566  15.6986417  70.2327924  42.4342420
  16.3113303  70.4925471  41.7401965  14.9530600  69.9044389  41.8823783
  18.6905469  62.4117515  40.4329171  17.7341622  62.5099086  40.7303630
  18.8727253  63.4000142  40.3156561  13.5879415  63.2588471  27.0078301
  14.3817152  62.7372074  26.7574742  12.9649634  62.9015518  26.3672630
  30.7172796  -3.7949926  27.6122713  30.1837631  -4.0019907  26.8658311
  30.0549792  -3.6195938  28.2890532  52.0339571   5.5795666  38.3803738
  51.9617784   4.9296244  39.0964721  52.9904689   5.7757376  38.4163588
  12.0816429  58.7973061  27.0962326  12.1773201  59.6777071  26.6657513
  11.4269910  59.0938013  27.8048967  14.8390336  65.9474971  64.6778176
  15.3195331  66.8436750  64.6427257  15.6798399  65.3986519  64.5361079
  13.9594207  57.9122260  23.0926374  13.0570865  57.6514671  23.4135960
  13.6529308  58.3304081  22.2631780  14.6701256  53.7180685  30.4731917
  15.2990825  54.0058894  29.7874336  14.7382373  52.7308140  30.2806271
  15.5145972  71.6144265  55.9433548  15.6237897  71.6294966  54.9649464
  15.3913747  72.5522324  56.1501685  13.9717079  58.0097218  34.6322462
  13.4771223  57.7589506  35.4384828  14.2328082  58.9583533  34.9604313
  33.1865931  63.2485990  22.7221100  33.4667363  62.7550673  23.5339095
  32.2382595  63.4419999  22.9787277  24.6796785  72.4422070  41.1011028
  23.9334351  71.9991148  40.7163392  24.3552954  73.2703789  41.3937944
  33.1114502   3.8486781  22.7071157  33.9021129   4.3153357  22.3396472
  33.5632967   3.2102382  23.2927104  15.1736159  68.5441188  38.5315832
  14.9024705  69.2405537  37.8775245  14.4247007  67.8686847  38.4064365
  31.3468849  74.9697781  31.2348972  30.4542214  75.0266529  30.7449344
  31.3073260  74.0035020  31.4089387  23.3507736  64.7509048  39.7254033
  23.2089322  64.1316545  40.4535829  24.3443734  64.7046402  39.7066861
  45.4750630   1.1845110  20.7675046  45.7888345   0.2695809  20.8250406
  44.6382088   1.0803318  20.3203554  24.1417439  61.3892614  30.4516706
  23.9958951  62.1897413  31.0399182  24.2851760  60.7050160  31.1068392
  33.6206163  -1.5205129  43.7114254  33.1177237  -1.3712198  42.8596962
  33.1224381  -1.0258600  44.3275818  43.8274420  -0.0924055  37.3320299
  43.9628984  -0.0992327  36.3372893  44.2966506  -0.9412941  37.5092760
  21.8577874  57.8017675  32.9094446  21.4867418  58.4215290  32.2259982
  22.1511142  57.0960429  32.3176724  12.3134495  72.1587157  43.0349953
  11.6518891  72.4577223  43.6631466  13.1311939  72.6429133  43.3002168
  34.9405927  70.7106533  39.0183289  34.1163092  71.0717842  39.4575854
  35.1391283  69.9669104  39.6706481  32.7863762  79.3600914  43.3826854
  32.2713465  78.5924895  43.4056725  33.2569654  79.2524249  42.5565433
  41.0392335   6.1385372  45.7248438  40.7699307   6.1896370  44.8355233
  42.0031289   6.4085832  45.7411226  56.0253907   6.1236722  45.6783723
  56.1901520   5.2553076  46.0268593  55.0996056   6.0598653  45.3937059
  33.6101363  70.4402815  21.5967418  32.8106772  69.8140611  21.6010460
  33.6253338  70.6616678  22.5487993  26.1734837  70.3803635  37.0594273
  26.5228364  70.6040394  37.9517807  25.2014456  70.2870804  37.2843647
  21.3371841  74.9437960  37.0443819  22.1816850  74.8161821  36.6374338
  21.5630187  75.5981455  37.7416567  26.6033142  73.8587701  33.4360719
  27.4373934  74.1844329  33.0476723  26.8805877  73.7700704  34.3691648
  26.7523892  71.1816086  39.7496871  27.2328275  70.7558221  40.5239550
  26.0033744  71.6073180  40.2449402  43.3975136  -0.4725678  31.1239985
  42.8527954  -0.0042035  31.7480236  42.7238454  -1.0397040  30.6519457
  16.7982403  69.5909474  32.5635677  17.0980204  69.8088452  31.6431004
  15.9929670  69.0263698  32.3639450  24.8640031  73.1452553  36.7114135
  25.2535708  72.2362499  36.8488160  23.9631248  73.0503366  36.8478083
  46.1848374   5.6421923  36.4016794  45.5395895   5.2014329  36.9820712
  46.7786241   4.9944040  36.1268442  17.6467666  69.9669129  36.9642414
  17.5259242  70.3979669  36.0857780  18.2698987  70.4841177  37.4333538
  52.8481660   6.5585571  29.6118630  52.2903218   5.8822993  29.1582184
  52.6639049   7.3477847  29.0598947  24.7823340  71.8630493  30.1431626
  25.5252633  71.5712325  30.6993579  24.4999182  72.6641299  30.5758950
  25.8854353  74.7236604  39.2061039  26.0353535  74.1994408  38.4543489
  25.7436233  75.6513080  38.9216762  40.4197102  78.4972724  28.9123421
  40.6942840  77.9952997  28.1595427  39.6622814  77.9915639  29.2425502
  34.0594699  77.6108814  17.4047765  34.5045670  76.7078393  17.5629722
  34.2620638  77.5871151  16.4015174  46.0281888  66.7739731  36.4327914
  45.7774329  67.5828681  35.9708378  45.3772994  66.7586662  37.1945647
   9.3228890   8.0629085  24.3065288   9.1752669   7.1862104  23.9678867
   9.6700950   8.5305642  23.5105484  19.8581027  18.8454917  25.7038899
  19.3733088  18.1775642  26.1533331  19.1257367  19.1260688  25.0146504
  13.9363304  16.3630113  21.9219253  13.5682501  16.6144470  21.0470647
  13.4596674  17.0033118  22.5237439   5.1265926  19.1356879  23.7891030
   5.2919278  18.5226660  24.5153863   4.7136610  18.5532733  23.1368352
  75.7394713  19.8970607  22.0226934  74.8687380  19.5095031  21.7681781
  76.1150147  19.1929251  22.5713573  33.9597278  47.4621955  82.4089778
  33.4167948  48.1818162  82.8333273  33.6132117  46.6526913  82.8326887
  76.4320415  23.0999182  26.0924394  76.0181816  22.2680652  26.4491072
  76.9352240  23.3572012  26.9469767  30.6565432  64.3144843  74.7575276
  31.6350559  64.3381399  75.0488877  30.3571601  64.8026333  75.6050510
  77.0651969  20.3148049  29.5311166  76.4321215  20.8568695  30.0822634
  77.4623937  19.8070785  30.3179393  76.9168970  27.0750055  23.6461088
  76.3667811  26.6337283  24.3094756  77.7046936  26.4992853  23.6776990
  78.0791182  20.9924876  42.1893405  77.5567435  20.7511345  42.9883701
  78.8431493  20.3995669  42.2726938   5.1027096  17.3501874  20.3485753
   4.3906081  17.2460052  21.0059298   5.8476806  16.9749986  20.9029668
  42.5844708  81.6800005  26.6171230  43.3711796  81.2988329  27.0683246
  42.8720799  82.6119814  26.6056381  10.6366022  25.9384189  14.7328343
   9.7933317  26.1629477  14.2098583  10.5969302  25.0627447  14.9555092
  75.8836011  23.5420533  33.8155702  75.2930678  23.3501778  34.5705443
  75.5744906  24.3566164  33.4172348  26.0492377  57.8593641  72.4510880
  25.9732872  57.3664465  71.5477320  26.8038869  57.3896766  72.8297614
   1.7632627  16.4624878  27.7849625   1.6522261  16.2029448  28.7534631
   2.3128337  15.6555286  27.5026816   3.7836353  14.6058012  23.6325416
   3.1120168  14.0792513  23.2365940   4.0392357  14.0148880  24.4257167
   8.2536070  37.1679665  19.9275315   8.5685026  38.1040469  20.0891381
   8.8348580  36.9752162  19.1561849   2.5570760  27.8061847  24.4519125
   3.4633656  27.5544286  24.7601189   2.1976178  27.9638956  25.3720006
  26.3155715  74.3544600  72.1115839  26.5218369  73.7006485  71.4058398
  25.7483963  74.9170987  71.5751714   9.4545165  31.6747609  11.0305943
   8.7731724  31.7096610  10.3105149   8.8404296  31.7942220  11.8030694
  74.7152693  32.9447076  41.1835935  75.1422516  33.4277151  40.4936081
  73.8996839  32.6105922  40.6465267  31.7740659  60.0791317  73.1991699
  32.6008033  60.0764217  72.7076004  31.5334478  61.0350104  73.2008814
  75.2187060  30.7749121  21.2593418  75.7296961  31.6384391  21.2279261
  75.8410879  30.3592152  21.9092777   6.6892336  33.6081907  18.6795986
   7.6176869  33.7439981  18.9975228   6.2551335  34.3965670  19.0062994
   9.3825012  40.3082778  17.1367085   9.0076786  40.2153018  16.2175417
   8.7718980  40.9798827  17.4709201   9.1179130  20.4937754  22.7099592
   8.7322598  21.2540612  23.1812475  10.0438196  20.5724623  22.8814884
  78.7457709  38.8808096  23.1094099  78.4281855  39.2632644  23.9759838
  78.9163621  39.7297713  22.6585965   4.1890616  45.8903113  13.2041933
   3.6524212  45.9394474  14.0857845   4.6793962  45.0430437  13.3897953
   9.0729089  20.1536596  32.6426202   9.5257449  20.2268517  31.7207122
   8.6497674  19.2725564  32.3848603  11.6797873  31.0229003  12.6195309
  11.1878390  31.3921868  11.8809639  12.5704500  30.9126411  12.1753779
  10.9072221  41.9078399  20.3475735  11.2513112  42.6791211  19.8975269
  10.8017507  42.2907064  21.2685800  17.4653011  32.7977366  24.1470563
  16.8805157  33.5697417  24.4281940  17.7671229  32.5017098  25.0456629
  26.5237487  57.9934299  75.6398966  26.1834713  58.8027837  75.2307422
  25.7361758  57.4998673  75.9420448  78.3073110  45.9829584  12.8750955
  77.7226564  45.1793991  12.9266773  79.1871199  45.5206564  12.9992654
   0.1769337  23.6531070  37.1792733   0.2339894  24.2938998  37.9029131
  -0.7831524  23.6710152  37.0360524  11.5145551  17.6079161  17.5584715
  11.3600716  18.4347788  17.0175214  11.4279433  16.8990257  16.9043603
  14.1319273  30.7300140  11.1446461  14.2118056  31.0209100  10.1953016
  13.9179404  29.7551697  10.9629196   6.5980362  31.3629601  36.4628054
   6.7884296  30.7225410  35.7604457   5.6374716  31.5039343  36.3252199
   0.4165841  42.0346191  26.0238604   0.7863437  41.1248398  25.9760673
   0.1064490  42.2028057  25.1577108   2.1416207  25.7821704  22.8804559
   2.5934951  25.1462042  23.4254230   2.4233917  26.6073830  23.3752241
  12.3654482  28.7840603  21.9908927  12.2515857  28.9833377  22.9247809
  12.0970664  29.6306502  21.5825644   6.6966032  27.5420326  22.0628383
   6.3153280  27.9398533  22.8906498   7.6306579  27.5746840  22.2392477
   8.9114718  33.8262127  20.3603291   9.3531914  33.3560996  21.1203975
   9.5502416  34.4409138  20.1293820   5.5726915  24.9386501  21.8159235
   5.5304866  24.6914911  22.7516991   6.1115591  25.7517255  21.8647719
  78.4526034  29.7621594  17.1750445  78.1207110  29.5251778  18.0294450
  78.3845237  30.7182788  17.1282187   3.5820967  32.8399834  20.9488823
   2.9644046  33.4883801  21.3279683   4.4446296  33.2096960  21.2697248
  10.7051315  33.9194104  30.2105694  10.6399889  33.4885507  31.0244922
  10.0647491  33.5129763  29.6819985   8.5565387  27.8890012  32.8994414
   9.2979810  27.3892449  33.1984079   8.6186449  27.7308879  31.9126535
  18.2272790  31.9613192  12.7168464  18.2954768  31.2125519  12.1175971
  17.3127416  31.9897054  12.9291332  78.4934089  19.5885128  20.0229171
  79.2246762  19.2405674  19.4695128  78.9951970  20.3280306  20.4995573
  79.4808947  26.1706451  34.9712112  80.2358587  25.6524675  34.6854494
  78.8453075  25.5018700  35.2508309  73.8736589  24.9995301  19.2299763
  73.9105913  24.0410218  18.9978885  73.3771034  25.3629277  18.4816744
   9.2259288  37.5568514  25.6508705   8.4517516  37.9268281  26.0889787
   8.8069384  37.1253254  24.8645299  77.1801338  39.2282041  25.2814037
  77.3662106  38.8110828  26.1519667  76.5710193  39.9170802  25.4769859
  72.6308455  22.1990326  27.7308499  72.7991770  21.4122658  28.3307723
  73.1500595  22.8701656  28.2653133  28.1147141  64.7690701  73.8988179
  29.0039232  64.6549241  74.2599113  27.9110861  63.7685359  73.8351391
   3.8919246  30.1232176  22.9935608   3.9451290  29.2167433  23.3691521
   3.7433430  29.9079225  22.0533467   4.3405214  24.6834420  32.1500742
   4.2320683  25.6005130  32.4829714   5.2901209  24.5231002  32.4695938
  26.6998582  53.6879995  80.4774496  27.2540830  54.0321821  81.2314747
  26.1211721  53.0388298  80.8444347  23.6453811  32.7398558  28.0588442
  24.0741422  33.3287559  27.3985098  24.4054279  32.1335006  28.2373943
   6.2090728  38.1863368  15.6030222   6.5919944  37.2883751  15.6213894
   6.9423761  38.7148015  15.1910995  10.1053586  34.3958966  14.1014225
  10.6875234  34.8736103  13.5218853  10.7583594  34.3015987  14.8756495
  15.5655043  37.4870465  25.0458109  15.8623798  38.2931486  25.5639394
  15.8724293  37.7970147  24.1332128   9.7092107  42.0585968  13.1540898
  10.1267867  42.8885188  13.5189763  10.4335026  41.4479513  13.3367554
   2.4252185  25.5640424  16.4132197   2.3777488  25.7408052  15.4274607
   1.5692112  25.9559621  16.7003056   3.2611162  38.3822938   9.7411545
   2.8277028  37.5013895   9.9033153   2.5879379  38.8253211   9.2083537
   2.9851597  47.2678698  27.6370048   2.9116307  48.2026448  27.2944003
   2.1069023  47.1599950  28.0080928   8.5453958  26.5782640  13.0315444
   7.5461662  26.5480100  12.9255924   8.6731858  27.5475408  13.1222369
   2.1644238  25.3281130  29.9185008   2.8176590  25.2659975  30.6209400
   2.7650056  25.1124858  29.1400682   5.9154912  34.7349144  14.7109407
   6.3232965  35.2114362  15.4114748   6.3080655  33.8276045  14.8590269
  32.3337148  59.2189729  79.5427952  32.9861555  58.7539837  78.9729006
  31.4852908  58.7332722  79.2869351  77.9581508  46.1934520  26.4403321
  78.7305572  45.8085185  25.9005937  77.4887580  46.5747681  25.6756095
  14.2364963  13.6237140  26.8667056  14.6223989  14.3682367  27.3343759
  13.4646808  13.4327542  27.3825319  78.6028322  26.0679382  38.3364124
  78.3642960  26.7531610  37.6274678  79.4628740  26.5394783  38.6168645
   3.8955102  37.9760954  14.0430949   4.2277852  38.5404388  13.2803303
   4.6237455  38.1222835  14.6689942  76.0926401  43.3832750  25.1106098
  75.6454313  43.8036818  24.3755297  75.5557101  42.5772323  25.1910126
   6.0514318  33.3634417  34.0745398   6.0154778  32.5477495  34.6448746
   5.9695955  34.0494613  34.7845427  35.3163271  72.0221329  67.1771368
  34.8683432  71.3120531  67.6848332  34.5528617  72.6610789  67.1030170
   5.9154007  20.0662634  30.6389425   6.0274007  19.6322227  31.5474550
   5.2838799  20.7747871  30.8616141  17.1671822  39.4196741  26.6008981
  18.1200890  39.3151834  26.5556031  17.0946708  39.5846549  27.5701141
   4.9209740  34.3259006  26.2013876   4.7003231  33.6371823  26.8526768
   4.3783776  34.0465146  25.4368209   7.3521083  36.1673150  32.7277890
   7.2089769  35.2182951  33.0443056   7.6097939  35.8139081  31.7686991
  78.2976157  31.6246407  19.6584223  77.6344707  31.9869129  20.3067032
  77.9683235  30.6848686  19.6535296   6.3471848  31.0269251  22.9018408
   6.0987083  31.9624490  22.6358493   5.5144468  30.7482932  23.3752464
   7.6384662  40.6387480  21.2509338   8.4936552  40.4651377  20.8717651
   7.7422422  40.7039680  22.1935336  10.4405563  37.8621254  22.0043399
  10.5845963  38.5119832  21.2985109  10.3323239  38.5169857  22.7413544
  37.3481962  62.9621965  67.9413208  37.9808006  62.7114110  68.6443620
  37.5212518  62.2581859  67.3071914   0.8997485  30.7330998  21.3936172
   0.1889521  31.0416395  20.8004301   1.7000248  31.1326641  21.0393204
  17.0029418  32.5250301  30.1270107  17.3910060  33.3677128  29.7894377
  17.3787643  32.5319139  31.0336782  13.7507162  24.1840866  30.0545043
  14.2192306  24.5400414  30.7723479  13.1537588  24.8002362  29.7147364
   1.9079349  39.7118732  25.5504368   1.4069934  38.8777548  25.6634852
   2.4195374  39.4303383  24.7429751  71.3125872  48.0855875   9.3702679
  71.7563391  47.4832132   8.7083063  72.0968284  48.4190758   9.8449623
  11.8780460  24.0341963  23.3873203  12.4714918  24.8462154  23.3378751
  11.2185008  24.2109199  22.7244548  18.2001776  33.5430167  26.7764505
  18.4391487  34.4493885  26.4106690  19.1101589  33.1638851  26.7980470
   7.5619978  40.5109974  24.1279006   6.9023817  40.7628681  24.8311859
   7.3478332  39.5283899  24.2013523  10.3560155  39.8028338  23.8460417
  10.4432656  39.1812513  24.5780555   9.3887060  40.0589586  24.0212550
   4.8686389  37.0634140  26.4823768   5.1653883  36.2854762  26.9979259
   4.1695258  36.6451811  25.9557303  10.1224867  31.3242933  18.3002627
  10.3494513  31.1239360  17.3777576  10.2597956  32.2891214  18.3402427
   0.5199650  42.7121570  16.4657390   0.1565613  42.3589212  15.6135196
   0.8816522  41.8807120  16.8434897  11.9581596  30.6373626  24.2945737
  12.8159110  31.0539199  24.1501024  11.4503229  31.2485370  24.7992561
  13.5241134  31.2852559  19.0710143  13.3896933  30.3750533  18.7704357
  12.9164488  31.3033414  19.8317141  69.0933407  49.4372931  24.4890892
  69.2698547  48.8187328  25.2025035  69.7016098  49.0355864  23.7943906
   7.2470510  38.8446566  13.1829883   6.4338693  38.8163341  12.6142377
   7.6736966  38.0693954  12.8220898  78.3485467  29.9313650  35.7951167
  77.8991539  30.1695207  34.9448572  78.0724891  28.9747259  35.9108297
   5.1360753  45.5385451  22.8245269   4.9615876  44.5846526  22.6098381
   5.0885214  45.4556830  23.8223025   9.3220035  27.6776070  30.2300082
   9.3550234  26.8116213  29.7336541  10.3213130  27.8303901  30.2604918
  73.0101195  51.7004124  24.1503664  73.0415077  51.3241520  23.2477595
  73.9681221  51.9406463  24.2477502   6.6417938  37.9988400  24.6917848
   5.8612921  37.8593075  25.3402857   6.1170577  37.7720645  23.8688086
  78.2162959  30.7114727  27.9542100  79.0492346  30.4837995  27.4446216
  78.6110426  31.1687067  28.7020543  11.3760387  33.3555900  10.5427707
  11.6156639  33.2235187   9.6096773  10.5868995  32.7994695  10.6018449
   3.0037953  44.0077486  26.6192010   2.2331818  44.2300504  26.1509316
   2.9342492  43.0512990  26.7576783   4.0821208  22.3039916  27.3215467
   3.5048987  21.6486380  26.9165193   4.7346071  21.7464793  27.7207527
   8.0783675  35.4581925  30.3113648   8.0041506  34.5847173  29.9374464
   8.7968390  35.7952134  29.7002482   9.4990701  25.8802028  19.4359690
   8.5745603  25.9744101  19.0966525   9.8563809  26.7191067  19.0946975
  78.2640788  33.0781418  14.6834278  79.0027556  33.7058780  14.4727126
  78.7514667  32.2395761  14.5043780   4.4186260  25.0458421  19.2545064
   3.4427222  25.0133978  19.4466471   4.7349756  24.9077548  20.1850440
   9.5442049  29.2603586  13.4571821  10.3543015  29.7362503  13.2044647
   8.9366657  30.0731159  13.5936739  74.4531380  47.7011582  26.4370761
  75.1937380  48.2033298  25.9369044  74.7408548  47.9275246  27.3640945
   9.9307304  25.3532769  22.0973737  10.2292425  26.3017945  22.0713350
   9.6438392  25.2394203  21.1748923  12.1732682  27.8222411  16.1007506
  11.5360459  27.2299787  15.6092173  12.8124801  27.9749429  15.3693007
  12.5466741  26.0823896  28.4638126  12.4609594  26.0098702  27.5106545
  12.7965096  27.0667970  28.5466241   5.6015577  37.7872072  21.9537740
   5.3889521  38.4622043  21.2542651   5.8930151  37.0674653  21.2992733
   2.1263855  43.5898482  23.8706466   3.1038109  43.5626511  23.9934433
   1.9588926  42.6105485  23.7318230   8.0978688  27.8527523  52.8060058
   8.5279501  27.0466603  53.1057197   8.8822222  28.4454834  52.6819736
   5.9591705  35.5751679  46.2612676   5.9421984  34.7821760  45.6177167
   4.9854521  35.8005488  46.1902887  20.7526941  32.5553939  26.5556828
  21.6233821  32.8438367  26.8316481  20.9803727  31.8142819  25.9493668
   2.7271411  35.8112094  10.6685664   2.7945868  35.8944448   9.7003589
   3.4568632  35.1914530  10.9043127   9.8325367  29.5787872  35.7767848
   8.8959740  29.5825626  35.4309023   9.7354766  29.1946176  36.6173443
   8.8578113  33.7028261  28.0078391   8.6136559  34.0331418  27.1137342
   9.3996669  32.8946449  27.7814079  10.3772202  40.0899627  34.9176010
   9.9167850  39.3498445  34.5527370  11.1766976  39.6628781  35.2744275
  35.9169241  72.8206435  70.5587002  35.3406145  72.0923791  70.2065390
  35.2816654  73.2722898  71.1451835  10.3884035  41.8110773  39.1230883
  10.4165983  40.9074074  39.5076542   9.8336725  42.2057024  39.8669171
   6.2706446  26.5154717  26.4276926   6.5790600  27.0919594  27.1512723
   6.2310718  25.6703420  26.9082826  37.3764302  59.1456195  73.2860994
  38.1346430  59.7446951  73.4963432  37.7821008  58.6245425  72.5574788
  79.2442631  41.8619053  13.7431772  78.4839814  41.8469544  13.1399607
  79.6114921  40.9352736  13.5568809  10.7451661  35.1420689  22.4237977
  10.9227585  34.8734358  23.3905601  10.9167977  36.1048399  22.5533583
   3.0445138  21.9442648  21.9031587   2.9575612  22.8571495  22.2138084
   3.9041957  21.7021205  22.2658954   6.9079841  51.2934890   9.5047414
   6.2799242  52.0061762   9.6136267   7.6296258  51.7291273  10.0823259
  12.0941053  33.6529952  27.5708759  12.0120221  33.8579757  28.5457829
  13.0454397  33.6165739  27.4541065  34.2809596  60.0585235  75.3498594
  34.6343744  60.5540843  74.5689962  35.1374695  59.5837204  75.5335460
  21.5955513  18.0144889  27.7965390  20.9291960  17.3252022  28.0855388
  21.0093149  18.3845518  27.0500726  22.0996104  20.3853337  37.8940655
  21.7203060  20.8727947  37.1679766  22.0431802  19.4898065  37.4871343
  10.6845100  24.7244877  26.3078228  10.5057871  25.6631187  26.3806063
  10.8049766  24.6172212  25.3304198  28.8513791  30.8893547  35.3740453
  28.6121491  30.1415774  35.9690562  27.8920795  31.2916152  35.3676891
   0.7382069  24.8373579  26.0100831  -0.0406006  24.3232813  25.6547247
   1.4854205  24.3603465  25.5901109  25.3182901  60.7657177  69.8300835
  25.6306342  60.7061519  70.7346853  26.1504890  60.9545767  69.3489319
  28.1044369  56.5578601  73.7921213  28.6857112  57.3759608  73.6884986
  27.4209317  56.9106902  74.4045094   2.3037025  13.6468249  21.5914783
   1.7267800  14.4154402  21.3708486   1.6632721  12.9085011  21.5592947
  75.3940115  33.8362098  36.7108607  74.5621251  34.2821234  36.9310225
  75.8227897  34.3880952  36.0343783  77.0933692  12.8411932  22.7876576
  77.8547019  12.5907776  22.2483500  76.7904940  13.6309712  22.3457500
   9.8712318  16.5445578  19.5267463  10.4145261  16.9242578  18.7557024
  10.0847966  17.2927725  20.1822537  11.8648907  21.8950772  25.3272597
  12.8231793  21.8944430  25.5923990  11.8667670  22.7175149  24.7694227
  77.3022726  21.0502083  33.9250543  78.0287432  21.2390597  34.6303436
  77.0067035  21.9381316  33.7510404  11.0016894  15.3843520  33.1158229
  10.9057865  14.4664071  33.3067139  11.8166882  15.4216961  32.5771296
  16.3314071  26.2959704  23.6060257  16.1761737  25.9849408  24.4868797
  17.1049096  26.8948630  23.7973251  43.1293483  57.1509655  76.0254921
  42.2761127  57.4004030  75.6702741  43.3690914  56.3535947  75.4508537
  77.1526894  46.8846036  24.0718202  76.6945933  47.6756264  23.6290874
  78.0261966  46.9363496  23.6690658  78.9459473  25.2980935  22.8293082
  78.6539525  24.5044289  23.3088976  79.8792518  25.3721710  23.0648107
   2.7880574  22.9536704  17.4391050   3.2551587  23.8641103  17.3586317
   2.6852014  22.7889491  16.4520458  16.9954786  22.8067099  22.7982044
  17.7289590  23.4483398  22.9405879  17.4517927  22.0999701  22.3454241
  78.7351707  36.1415969  22.0923860  77.9257698  36.6362474  21.8084296
  79.2765668  36.9035883  22.4743256   2.5509375  32.4122032  37.5297760
   2.3660886  33.3686885  37.5356391   1.6037629  32.1059313  37.3831172
  23.9118574  55.8524736  80.2029552  23.0495225  55.5178554  80.6032365
  24.2442369  56.2941398  81.0738576  69.7634562  47.1596512  11.5524572
  69.8476800  46.3394087  11.0863458  70.0348845  47.8046080  10.8351865
  34.6677135  57.5873403  78.1073766  35.0076885  57.5825122  77.2417047
  33.9884348  56.9003835  78.1391118   8.4285708  55.0522987  12.7344484
   9.3485323  54.9469745  12.4562966   8.5161857  55.5652390  13.5417740
   3.3620103  51.2080780  25.1946575   4.2060980  51.4556038  25.6623418
   3.6018809  51.5175995  24.2850494  15.5782786  46.3775574  20.3241602
  14.8201183  46.3320072  20.8340823  16.0877738  47.0990081  20.8840444
  16.4354294  47.5678107  31.5999407  16.4766113  47.6587564  32.5825998
  15.6954059  48.2137277  31.4499969  14.3766216  44.9584715  15.7445312
  13.5176461  44.6104591  16.1378538  14.0732648  44.9779009  14.7715363
   8.9477360  45.2765535  24.0727394   9.9195541  45.1519037  24.2776222
   8.6829722  45.6425662  24.9634752   7.6852357  42.6028213  31.4371882
   8.1989634  41.8624948  31.8756911   7.3612391  43.0338518  32.2776068
  54.7251855  10.7209955  73.6748155  54.7539323  10.0742761  74.3930785
  54.4138374  11.5432821  74.1837317  13.7790467  43.8762877  45.7278862
  13.6684147  43.1628464  46.3870188  14.3559971  44.4947367  46.2741387
  16.0133521  42.9208820  21.4968034  16.2994943  43.0406286  22.3636732
  15.1688031  43.3189496  21.4203414  13.4436613  43.7530194  20.9846525
  13.1099286  44.6104228  21.2965154  12.9862002  43.7416744  20.0699114
   9.1642473  37.4492764  28.4144515   9.6233496  37.2722226  27.5332050
   8.5044497  38.0924418  28.0654276   1.8986217  54.9227699  37.6181245
   1.2101936  55.5945744  37.4287673   2.4166393  54.9604423  36.8136361
  13.6689762  46.4009936  18.2116727  14.4667270  46.3876801  18.7678422
  14.0462176  45.7868254  17.4909749  79.0168232  48.2865760  33.6733315
  78.7892113  48.4088396  34.6150248  79.9886529  48.4271829  33.7847255
   1.6428426  31.2427062  30.2065775   1.4403044  31.4023486  31.1239362
   2.5524737  30.8969428  30.2686899  24.2875041  56.3169506  15.8381689
  23.8943927  55.5004228  15.4692801  25.1357160  56.2627279  15.3571430
  15.6439560  55.2904675  16.1410220  15.9498821  55.2224658  15.2138430
  14.8516030  55.8433367  16.1077273  14.2401338  31.8201328  34.1749884
  14.8293846  31.8390339  34.9519791  13.6804957  31.0732428  34.3959791
  10.6562766  48.2794762  18.3384927   9.8687375  48.4281116  18.9566082
  10.7605733  49.2296973  18.1037342  11.6823190  50.4907858  37.3242031
  11.3406528  50.3796365  36.4104301  10.9153972  50.9327109  37.7211486
  18.4597072  37.1897378  30.5450818  17.8655768  36.5623120  30.0792598
  18.9437888  37.6345330  29.8824376   3.2561437  35.2875483  14.0009939
   3.3086682  36.2872166  13.9806360   4.1965450  35.1092335  14.0867863
   8.0291198  35.8474510  22.6636027   8.7811706  35.2766279  22.5441386
   8.0210511  36.3139806  21.8418171  20.5159137  68.9898598  16.9350824
  20.0373548  69.6973257  16.4694852  21.2818084  69.4898620  17.2567489
  11.8548819  47.3316215  10.3786974  12.4490930  46.8872998  11.0743785
  11.7528663  48.1737669  10.8481785   2.8147532  54.8624386  19.2062698
   3.6888269  54.4837548  19.4243720   2.5103953  54.1856184  18.5795189
   6.9562676  45.8859042  18.8130105   7.3822307  46.0362603  19.6615891
   6.3789698  46.6732847  18.7250281  12.0875360  47.4607470  13.7100252
  12.2468409  47.5420283  14.6654232  12.6799017  46.7504238  13.4419264
   5.3997953  28.3230855  24.5984943   4.9075089  28.7540118  25.3386292
   5.9622772  27.7020486  25.1390491   2.0648158  50.6181025  21.0143389
   1.3954669  51.3246618  21.1168304   2.8465714  51.0292724  20.6918388
  10.7332299  51.4321148  20.0819577  10.9949094  51.3607736  21.0530270
  10.1539917  50.6277984  20.0722752  12.1581827  43.1440225  24.3899049
  12.1772457  42.3272820  24.9084611  11.9247889  43.8376008  25.0556338
  11.9399338  53.2386427  18.5402432  11.8789471  54.0571940  19.0926609
  11.3569496  52.6279570  19.0148245  11.2765149  52.1163966  22.6270979
  12.0417456  51.7008195  23.0748774  11.3612727  53.0547864  22.9322132
  77.8007927  49.5661501  18.4370216  77.6948625  50.1448251  17.6229906
  77.9352509  48.6879376  18.0232485   9.9203452  44.0119986  37.4797261
  10.1723962  43.2702883  38.0918033   9.9094112  43.4352291  36.6231003
   8.3484830  25.0076430  24.4580218   8.8294612  25.1485843  23.6432275
   8.5690166  25.8554032  24.9455093   8.1593590  52.2904923  25.2144324
   8.4770960  51.3646964  25.5037285   8.3154519  52.7411678  26.0326159
   0.1634345  47.9183878  30.9827240   0.0546823  47.8007355  31.9553726
   1.1422879  47.7774687  30.8978117   2.9440763  49.9038099  17.0773433
   3.3782820  50.3942879  16.3732143   2.3130543  49.3711550  16.4959865
  19.0251972  65.1741759  25.4712383  18.8000680  65.4078084  24.5237278
  19.2144221  64.2422913  25.4278818  12.9603734  46.4111098  22.1101945
  12.6487357  45.6964049  22.6930746  12.9384103  47.1998920  22.6958358
   7.7072099  61.8142099  18.3896347   8.0526957  62.7528928  18.3507481
   6.9099568  61.9797940  17.8745731  70.7789445  37.8097709  29.3939914
  70.8607186  38.7645411  29.4014363  70.1090367  37.6412767  30.0776123
  24.1339330  63.7306074  32.0780672  23.2194378  64.1329502  32.0613487
  24.6224206  64.5966250  31.9342151   0.8969910  40.4056134  20.9102071
   0.5767553  39.5233337  20.6506658   0.3171367  40.9568175  20.3817000
  31.6909743  71.8422872  70.9321340  31.1950108  71.4575256  70.2001290
  31.0290705  72.5967623  71.1809132   7.8094560  45.6434739  21.5972505
   8.0328687  45.5982677  22.5871328   6.8629178  45.9790954  21.6491247
   0.1269788  40.3235466  17.7189761   0.1634322  39.5239260  18.3423403
  -0.2414806  40.9679346  18.3409270  16.4506254  21.3129067  36.1987561
  16.8049433  20.4025304  35.9788606  15.4906618  21.1678299  36.3387183
  76.5317570  52.9708379  16.9408793  76.1650027  53.2840611  16.1058099
  75.7980432  52.5080030  17.3168407   3.5452507  42.8017566  16.2943189
   4.2315097  43.2845662  16.7668554   2.7773352  43.0422026  16.8604457
   7.4549879  39.2095414  27.6589302   6.9486056  39.1660093  28.5058019
   6.8751487  39.8985825  27.2423410  12.6227522  41.0224671  26.0604384
  12.4401942  40.0703681  26.3253573  12.2408961  41.4277843  26.9108719
   3.2307997  48.0718952  30.9988597   3.8010694  47.4186487  30.5556294
   3.8740570  48.4448522  31.6658714   1.3452781  29.1640693  16.7494863
   1.7291611  29.6008833  15.9711511   0.4295294  29.3120626  16.6261478
  12.2785556  54.3415610  24.0841238  12.2192141  53.7270199  24.8297682
  12.1074644  55.2142302  24.6046049   7.4213089  46.1705317  30.9294278
   7.1639612  45.6940271  31.7791274   7.7978213  46.9704693  31.3301602
  12.5794289  56.4835961  17.2227793  13.0127242  57.3712033  17.3978104
  11.7359721  56.6109098  17.7600975  15.8011834  57.3736044  29.1893929
  14.9888212  56.9460626  28.8431621  15.8311886  58.1652030  28.6354497
  10.4268330  57.1544351  18.6469303   9.5018057  56.8297427  18.4585151
  10.1935405  58.1167408  18.7105551  15.0202640  30.1950598  41.3138380
  15.9482281  30.2913727  41.0132966  15.0177717  30.6339290  42.1674512
  18.3201677  61.6680701   8.7094840  17.7379676  61.9573984   8.0072762
  17.6695151  61.1996351   9.3190619  10.7375964  45.9676284  34.8767302
  10.8632907  46.3095570  35.7211000  10.6816065  45.0282110  35.0184950
  11.0779179  44.1928225  14.4086546  12.0049383  44.3134099  14.0591658
  11.2666581  44.4007586  15.3980209  16.7890894  34.7813214  33.2233229
  17.0852305  33.9447336  32.9753602  17.1996173  35.4155677  32.6340103
   3.3405125  41.3242262  13.8940224   3.4233744  41.6608953  14.8458198
   3.8258897  42.0803670  13.4614236  24.7241450  68.7283950  16.9562700
  25.4104411  69.1746613  17.4683810  25.1562148  68.5782911  16.0820165
  68.2860643  52.7926235  27.4035191  67.5371856  52.5389906  28.0333814
  68.7383511  51.9250142  27.4347000  13.1302283  54.3830782  32.6054612
  13.5861497  53.9039255  31.8661615  13.7640148  55.0504833  32.7660116
  21.3162017  34.6658573  33.3939526  20.5772882  34.5712154  34.0132131
  21.3202997  33.7799564  33.0111361  77.4539647  48.1613578  29.2819582
  77.9436159  48.6555503  28.5568158  78.1446837  48.3018459  29.9919401
   5.8702999  45.8119805  37.6671297   5.9330254  45.4411724  38.6028921
   6.8237198  46.1078993  37.5791475  10.9646518  51.6656069  28.5207482
  11.3321190  51.9220194  29.4132136  10.0736818  51.5025044  28.7538743
   2.6238802  44.7409600  36.2067599   2.1713085  44.8646299  35.4040399
   3.4956986  45.1598397  36.1170213  11.3571696  45.6525104  25.2968647
  12.0902979  46.2806018  25.4993109  11.1598352  45.3828421  26.2809472
  66.2833708  61.7060330  14.7562563  65.9101114  61.6138022  13.8212729
  65.4261513  61.7915341  15.1855593   8.3686291  50.5097825  30.6177316
   8.8437809  49.8827397  31.2362863   7.6116196  50.6786379  31.2304579
   5.5876593  32.5385372  28.3953987   5.4136300  32.6444983  29.3554618
   6.4499424  32.0943356  28.3889880  13.3205185  56.6039123  28.2316093
  12.8855308  57.3301827  27.7852043  12.7454510  56.4331605  28.9974478
  11.7468984  43.9256286  31.5558610  12.6705659  43.6573918  31.3953396
  11.3175881  43.0305868  31.5956351  18.9359890  42.4682769  41.9658046
  18.0429350  42.2209992  42.0860214  19.3410299  41.8784284  42.6778767
   9.3712494  59.8913783  19.3000198   9.6955174  59.9253775  18.3392202
   8.7807356  60.7094850  19.2546299  16.7480635  66.9367485  16.9304494
  17.2188677  67.2898410  17.7810312  17.3398174  67.3307690  16.2772546
  18.3578681  67.4961422  14.5750748  19.0990707  67.0405550  14.1295501
  17.8447041  67.8265355  13.8413546  30.1446649  67.8001169  17.5447284
  30.2078113  66.9357801  18.0413444  29.3679690  68.2014863  17.9481912
  35.9946651  65.3325960  29.4619396  35.7559279  64.4689610  29.8065401
  35.7434603  65.9164353  30.1904975  24.0285949  63.9857454  36.6040432
  23.9752586  64.9611872  36.2678751  24.9256758  63.9987767  36.9508646
  12.8285955  59.4582821  18.1241638  13.5457720  60.0506740  17.7608224
  12.1122908  59.6548214  17.5031121  27.2461450  59.4874423  14.8926611
  28.2181802  59.5049890  15.0915760  26.9929868  60.4308581  15.0179293
  61.5114663  30.8681549  74.2408560  62.2124013  31.1282936  74.8924074
  60.9529975  30.3056273  74.8217448  21.9118241  62.4085239  23.1609312
  22.6908034  62.2671867  23.7028259  21.1943985  62.1167729  23.6927389
  26.6511986  74.7355565  28.8832407  27.3094080  75.0436936  29.5084898
  26.1084568  75.5343500  28.7292333  21.8546676  60.0474875  21.7503510
  21.5779477  59.6433602  22.5307082  22.1722387  60.9362459  22.0657616
  24.4462571  62.4929976  24.3328532  24.2647460  63.4328213  24.4005064
  25.1932823  62.4321014  24.9429745  27.4043481  74.1296950  22.8026099
  27.4336742  73.1750463  23.0851549  27.8993079  74.4797684  23.5729718
  24.7112409  68.2088539  33.9115057  25.6093183  68.3874933  34.3053166
  24.3834214  69.1393007  33.8381094  38.2269803  61.2203834  28.3915404
  39.1577656  61.0022601  28.5403513  37.9666726  60.4464595  27.8274462
  16.0081650  56.2797622  24.5776363  15.4383462  56.0137013  25.3121721
  15.3357264  56.7682377  24.0355332  30.0862438  65.8189806  40.7500606
  30.6649911  65.0419919  41.0038802  30.1212222  66.3066141  41.6053140
  26.5923933  62.1709056  25.8056640  26.9655458  61.4432495  26.3160864
  27.3075544  62.6055261  25.4086610  11.8439400  55.3389892  20.2029055
  11.6482327  56.2830251  19.8363401  11.0562770  55.2573643  20.7045483
  21.7773763  64.9254153  32.2240390  21.7959602  65.8620875  32.1515629
  21.2867590  64.7704385  33.0273611  14.9104569  54.5503202  26.8427923
  14.2527322  55.0569349  27.3649458  15.7297195  54.7601609  27.3458563
  29.6320122  64.3326593  27.7070319  30.2828152  63.9923443  28.3274581
  29.9852919  65.2363512  27.5332087   4.4695532  59.7976667  23.2370731
   5.1881039  59.2676811  22.8282067   4.8929992  60.1056581  24.0749049
  31.9467623  65.5873312  17.9313101  32.7459072  65.9004380  17.5336080
  32.1864257  65.2652565  18.8030488  15.6121573  68.4306881  28.0537164
  14.9763412  68.3989850  27.3399487  16.1342120  67.6012670  27.9196478
  19.8750460  62.0146780  32.0785424  20.1495274  61.4289746  31.3414081
  20.6462738  62.0338888  32.6273970  22.0011377  73.2599855  24.9683213
  22.4991350  72.4808890  24.7416149  22.0692621  73.8105658  24.1343274
  18.8976561  72.8915713  34.2976974  18.1531733  72.4308396  34.7424194
  18.5111399  73.6416547  33.8671362  44.6049732   4.7919203  28.6151535
  45.1575860   4.0392937  28.2584800  45.1799353   5.0105278  29.3676291
  29.5427525  62.3451544  33.5545104  30.1857118  63.0575332  33.7895422
  28.7314901  62.6982597  33.9964109  26.9812634  71.1525354  31.6309307
  27.3260390  70.4389886  32.1891873  27.7123929  71.2370957  31.0116370
  22.8288225  68.0624050  20.3264302  23.1369148  68.7604828  20.9258702
  22.8690331  68.5558218  19.4561685  27.3638770  59.1564665  23.9628690
  27.0229780  58.5703440  23.3049481  26.6021050  59.2254121  24.5929973
  30.1261477  60.9304255  19.6632464  29.3508239  60.9878002  20.1854404
  30.0944385  61.7935782  19.1878754  17.6253857  58.1499147  25.3606512
  17.0444508  57.3561438  25.1577483  18.3157661  57.6137887  25.8652015
  21.2765755  54.3672538  19.1883530  20.9829021  53.5442601  18.7456755
  20.3822864  54.7798636  19.3260133  23.9446142  60.8080660  15.9045985
  24.9155844  60.9930326  15.8436482  24.0471677  60.1543006  16.6842771
  31.7087997  68.6185228   9.4248893  32.2641519  67.8799601   9.5679080
  32.3780773  69.3779854   9.2344766  22.6603977  62.7755675  17.9482167
  22.4901706  61.8450962  17.8511957  23.6010848  62.8032268  18.2263784
  27.4110246  58.4159838  17.9087153  28.0519608  59.0013128  17.4696243
  26.5778612  58.8390323  17.6158498  42.7306024  62.7529876  12.2495456
  42.7717506  63.4849904  12.9621000  41.9069431  63.0546444  11.8322554
   7.1677781  50.2853462  17.9551029   7.2200868  50.4073286  17.0377990
   6.3568479  49.6587508  17.9657251  12.8234553  59.3984852  10.8237370
  13.3637785  58.6817459  11.1707333  13.0987312  60.1471486  11.4284900
  21.9692943  58.8440186  19.2143414  21.0352995  59.0656840  18.8960737
  21.9755359  59.3008680  20.0894354  28.2841958  64.4387917  31.5487207
  28.7104823  65.1742883  32.0125724  27.9087422  63.9818554  32.3373388
  31.4285695  60.2026690  28.6880345  32.0247985  59.7747565  29.2296355
  30.5447299  59.8550509  28.9256360  14.8537546  60.4107932  24.4409329
  14.6291610  59.4926635  24.1920046  14.0247154  60.8365110  24.4739955
  16.5162192  52.8214737  17.2878318  16.8793918  52.4957464  16.4771452
  16.0810837  53.6125301  16.9614152  28.6575105  69.5331751  33.2224183
  29.0535040  69.3894549  32.3180983  29.1183595  70.3674188  33.4509122
  38.3147385  70.0464677  36.4722337  37.7448429  70.7655389  36.3104860
  38.4797118  70.0163638  37.4147640  25.3481124  58.6610832  25.8059054
  24.5778604  58.3662913  25.2081284  24.8072426  59.2692461  26.4343101
  20.0600130  57.1185320  14.6576464  19.8376619  56.6329461  15.4785783
  21.0235323  57.1254860  14.6525639  33.5915664  64.4997327  20.2114168
  33.8761305  65.4218343  20.3708910  33.2774114  64.2177697  21.0581797
  18.5157627  64.0620764  20.4375394  18.8288361  63.1657816  20.3129692
  19.0918756  64.4891899  19.7891651  20.6520801  64.3215264  38.1713080
  19.9878408  64.8664812  38.5956237  21.4268029  64.9713703  38.2223219
  28.3866717  56.1152193  16.5716058  28.3215392  56.9513725  17.0867218
  29.2670940  55.8020582  16.8455717  37.0249898  65.2908412  33.2014267
  36.1128131  65.0171231  32.9725866  36.8865452  65.6380229  34.1055835
  41.7619665   0.4140009  13.4946982  41.8824908   0.8087809  14.3668420
  40.8380315   0.0693252  13.5320786  33.3328502  59.2123315  30.6886233
  32.6855081  59.5319949  31.3445164  34.1774093  59.4252037  31.1053076
   2.7149992  65.3868020  20.7786316   2.8577552  64.4386479  20.4431283
   1.7769181  65.4126810  20.7937096  48.1457937   2.3696924  12.1996428
  47.7509282   1.9407915  11.4077476  47.4263439   2.2566650  12.8491755
  19.6920106  59.8673343  18.7560557  19.6272282  60.7552246  18.2444673
  18.7740112  59.6286714  18.7972798  17.5917935  67.9997637  20.8555320
  17.0389868  68.6629472  20.3935104  18.1813365  67.7392021  20.1030571
  28.5813064  61.7298534  31.0752076  28.3422823  62.6600015  30.8643434
  28.7155923  61.7790177  32.0422150  34.4865764  67.0260649  31.0883706
  34.1442596  66.5891882  31.8582507  34.5903659  67.9468619  31.3419257
  41.3702362  55.8117181   9.5542321  40.5007504  56.2385671   9.7725944
  42.0140891  56.4585482   9.7942957  29.6457122  57.9564474  21.3077163
  30.3581347  57.2545994  21.1334718  30.2667816  58.7309904  21.3144353
  19.7793947  56.4688969  17.3000949  20.7040197  56.8743437  17.2651417
  19.8350958  55.9927262  18.1446717  15.1522812  65.4592908  31.4847554
  16.0043673  65.4875493  31.9273709  15.5114706  65.1765013  30.5925916
  17.4391416  63.4130718  23.3451073  17.7456849  62.6371322  23.7908218
  18.0370699  63.4672644  22.5930636  16.3007901  61.5596890  20.0425612
  16.9720085  61.8527444  20.6528623  16.9188985  60.7911651  19.6850771
  21.8547991  60.9742208  25.7382823  22.5141951  60.6643078  26.3546680
  21.6665024  60.1104004  25.2604801  31.1661800  60.6906603  31.8889825
  30.2737770  60.3006503  32.0529866  31.2129752  61.4232524  32.5287053
  20.0309134  56.8880711  22.0882984  20.0233389  57.7310579  22.5841681
  19.7576208  56.2957930  22.8430185  21.0594470  65.3569040  23.0328164
  21.7420374  65.9011607  22.5050940  21.4497441  64.4647485  22.8998625
  34.2101326  62.0037952  27.4761623  33.9200597  61.8670368  26.5067838
  34.0940945  62.9937227  27.4850558  16.6231096  53.3254167  22.4300084
  15.7018769  53.6538702  22.3314547  16.8567645  53.3725889  21.4463607
  24.8808290  75.7246658  22.0063576  25.6053454  75.0219552  22.1259423
  24.8724055  76.0540079  22.9208855  35.7655832  61.5182775  19.2239731
  35.2330831  61.6784155  20.0247566  36.6160017  61.7987760  19.3958976
  34.0638767  68.7680484  25.9869090  34.3844689  67.9290693  25.5615989
  33.9359267  68.4502588  26.9088694  24.7317992  64.6576930  21.9760767
  24.4309734  64.9830523  21.0399753  25.4229163  63.9965281  21.5959308
  29.2409357  65.4153752  19.3290393  28.2977089  65.7015989  19.3411058
  29.6211884  65.9171691  20.1021950  19.0601018  62.8943822  29.0054960
  19.7787300  62.5555059  29.5815205  19.5691526  62.7402311  28.1610972
  38.7805020  77.4618840  23.6562347  39.3203331  77.5326997  22.8002410
  37.9736831  77.9613841  23.3142334  24.5486747  74.1953031  31.4946786
  24.3646675  75.1775398  31.6730707  25.2835206  74.0671581  32.1215308
  29.7961959  75.9304024  37.2404451  29.3541474  76.7184503  37.4747885
  29.1737580  75.4570321  36.6795786  25.6928126  65.9620416  14.3869178
  26.0007954  66.3390724  15.2008906  25.1635506  66.7217582  13.9904414
  25.2503922  55.7700837  12.4877698  25.9826091  56.1114731  13.0251805
  24.7285315  55.3495413  13.3005585  11.3124376  68.1872605  28.2789290
  10.7375709  67.4583663  27.9434213  11.1106614  68.1147359  29.2277019
  37.3313678  61.3683572  36.5991032  37.7885192  61.9179055  37.2509166
  36.4359470  61.7652446  36.6952538  35.8140961  66.5425656  35.6932963
  35.3360979  67.0626735  35.0383131  35.2799416  66.5963212  36.4520591
  19.4343784  62.3732063  25.4887662  20.1853219  61.7877445  25.7422472
  18.7473767  61.6846955  25.2710607  37.2111449  76.4878086  40.3041752
  38.0941284  76.7185360  39.9727172  37.3846303  75.6253285  40.6766614
  18.2853662  63.7605703  15.7743535  18.7131847  63.1516282  15.1310621
  18.6648147  64.6263039  15.4468206  16.6419751  57.8722617  21.7487457
  15.7378263  57.5818540  21.6409837  16.7868545  57.9518718  22.6775211
  62.8888463  34.4429967  77.1960453  62.9173953  35.1674886  77.8812185
  62.1530906  34.6695923  76.6629437  24.3262537  59.3417588  18.1387911
  23.5434282  59.0005483  18.6266175  24.6564343  60.0553762  18.7705358
  33.9993902  70.5105758  13.0529107  34.1352763  69.8861736  13.7975468
  33.1425630  70.9537349  13.2877713   7.3353276  59.0837187  16.9780080
   7.5863615  58.3472194  17.5675490   7.5139213  59.8301581  17.5413571
  26.1115705  63.8153691  39.7983259  26.4515441  63.8530384  38.8333103
  26.6609756  63.0400383  40.0844996  10.4195493  60.2299427  16.8425989
  10.3661021  60.1776327  15.8590121  10.8530299  61.1164779  16.8896105
  17.1502201  60.7910119  25.5515432  17.2329319  59.7792545  25.5225015
  16.3501549  60.8587774  25.0039767  21.9878270  63.4609648  27.1282456
  22.4597737  62.9728844  26.4572902  22.1798333  62.9486265  27.9514769
  45.1198890   3.3964906  16.2153972  44.9177415   4.3220163  16.4379221
  45.5185047   3.1129999  17.0865435   8.5847545  57.0739756  35.9068770
   9.4038967  56.5846581  35.9869758   8.4392595  57.2369895  36.8794934
  24.5392276  60.3238975  22.7408363  24.0446724  59.6924495  23.3685960
  24.5992509  61.0778217  23.3686066  31.1350244  72.2690416  16.5888345
  32.0854800  72.1986534  16.8388972  30.9040181  73.1040528  17.1267433
  21.3124365  53.3906325  11.3057303  21.3231666  52.4005850  11.2416052
  20.4958660  53.5747614  10.8063314  41.1292672   2.8570099  21.7254314
  40.5105739   3.4358011  22.2228285  40.4713112   2.5909114  20.9891742
  11.1858135  70.9984004  18.9033040  11.6383314  70.7574288  19.6872158
  10.3658417  71.4322449  19.2550665  27.0841490  57.7236202  20.4820663
  27.0666243  57.8702803  19.5121168  28.0301295  57.7895100  20.6462567
  27.5787860  66.6343575  46.7694056  27.4384734  66.0803007  45.8866625
  26.7673230  67.1517625  46.6879810  12.2791700  68.4751219  22.5509926
  12.4652545  67.8819024  23.3489640  12.8242225  67.9966842  21.8980349
  24.6551567  65.2485466  24.5376904  24.7210119  65.1569881  23.5230740
  24.1148766  66.0798252  24.5447223  35.6017413  63.4424558  24.6833334
  34.9873127  62.7497730  24.8744442  36.1548055  63.5124361  25.4531963
  36.7064975  74.4825530  35.2773724  36.6827318  73.5710110  35.6869801
  37.2546415  74.2890418  34.5165313  19.9607565  73.7660308  21.3301932
  20.6323413  74.1029010  21.8768007  20.5142899  73.3346772  20.6259217
  31.6467670  66.7294719  24.1727645  32.6374760  66.8090558  24.2264648
  31.4761165  66.7249964  25.1666176  38.1057814  74.1018186  32.9825398
  38.7890869  73.5147560  32.6061903  38.1445089  74.8570507  32.3459797
  66.0940862   8.2076250  26.6191970  66.9020568   8.6510037  26.4824985
  66.4364167   7.3353070  26.9300000  33.6222295  67.4362385  20.3570099
  34.3101232  67.9910531  20.7991086  32.8214115  67.7615772  20.8125266
  56.9063942  16.2065501  18.5519032  57.5589821  16.5356700  19.1963280
  57.0078178  15.2385010  18.6915366  41.6711900  76.6058766  26.9029823
  41.0269741  76.3162575  26.2570089  42.0743991  75.8102696  27.1882630
  34.3202712  77.3744723  14.8920043  35.1954240  77.5673067  14.5791326
  34.1533115  76.5200715  14.4272080  34.7006420  66.0742215  17.8205798
  35.1706710  66.8491916  18.2340368  35.3060802  65.3730410  18.1851469
  42.8782662  66.1596637  27.4935892  43.5548713  66.8539867  27.5117350
  43.4579470  65.4098936  27.7773909  14.7554694  40.7882107  72.0110252
  15.3530110  40.3883989  71.3577192  15.2950063  41.4468050  72.4574954
  47.1622035  75.4205783  36.7872499  47.7497528  74.6282257  36.6580928
  47.2524056  75.5326446  37.7741881  33.7204746  76.9669090  34.6391279
  32.9690892  77.1177969  34.0222898  33.4413904  76.0431177  34.9817176
  42.5461651  73.0391545  23.6584465  42.4342711  72.6562910  24.5766371
  41.5638323  73.2317764  23.4742964  28.2443224  61.8361280  12.7149517
  28.4107372  62.4555810  13.4664491  27.3330620  62.2113542  12.4748708
  24.4791540  68.6293742  27.0489569  24.7325485  68.0776342  27.8340158
  24.1675045  69.4134732  27.5421519  42.8311877  73.6519877  33.4146295
  42.3475663  73.0994716  32.8448555  42.0878011  74.1588921  33.8367427
  44.6839471  66.6157282  23.3452367  44.1626036  67.4590549  23.4602888
  45.5705059  66.9473191  23.3572056  42.3192104  69.7699783  23.3118865
  43.0025288  70.1417680  22.7156769  42.8492591  69.5521979  24.1038421
  36.1504794  77.1146588  36.1014528  35.2036184  77.2368842  35.7464550
  36.2625957  76.1830399  35.8829578  41.8201435  67.0445739  36.8365362
  41.3644682  67.6452963  37.4886447  42.7396477  67.0721667  37.1414846
  47.9593274  66.9359794  31.8594913  47.9042972  67.7388482  32.3781528
  48.8181592  66.9751858  31.4178438  31.1725975  72.9704188  22.4191682
  31.7948582  73.1476741  21.6887876  30.4480399  72.5766299  22.0064946
  67.4644345  12.3973610  25.0488564  67.2474622  13.3200595  24.9319165
  67.1399134  11.9590047  24.2366542  37.0535846  69.3235809  31.0607645
  37.5353433  68.4966691  31.2602285  36.9111162  69.2179607  30.1177915
  34.5847067  79.3374586  30.7646267  35.2455174  79.9122685  30.3203285
  35.0771224  79.0822766  31.5666778  38.9422064  65.9966699  18.0772794
  38.6974731  65.7055043  17.1597485  39.4194443  66.8246761  17.7495771
  31.9413909  78.1133582  22.8726045  31.0702292  77.9100326  23.2924009
  32.0037918  77.4905243  22.1526144  35.5687419  76.4006242  25.1440661
  34.5981536  76.3117300  25.0251014  35.8467465  76.3113121  24.2260388
  35.2268396  72.0022290  19.9934406  36.1094786  71.7328479  20.2598800
  34.6725154  71.3761577  20.4743518  22.7274434  71.1521638  45.0995031
  23.4640956  71.2310272  44.5240807  23.1017916  71.6634898  45.8980014
  30.3052117  74.2561389  34.4780936  31.1654634  74.5414040  34.8512708
  30.4949034  73.3964679  34.1167815  34.0446589  64.5799391  27.5539066
  34.6782201  64.6727101  28.3491719  34.3068464  65.3439440  27.0467150
  34.4670532  68.2133099  34.2915400  33.4755218  68.0431605  34.2192237
  34.5458843  68.5789825  33.4036234  34.1138852  68.7706247  15.4484714
  33.8309823  68.7452104  16.3549449  34.3157971  67.7787034  15.3283973
  43.5090363  78.1904807  33.4516969  44.3850285  78.5391535  33.7416328
  43.2894573  77.6950422  34.2777667  26.9510717  63.4095914  33.5896895
  26.1499264  63.2844366  33.0915231  26.7540025  62.8782766  34.3931545
  24.2957560  71.3702747  25.2301777  23.7573764  71.3590380  26.0528137
  25.1269586  71.8064242  25.5667812  56.2183111   7.8546595  29.4152793
  56.1924754   8.7089741  29.8774309  57.2208338   7.6814171  29.4224108
  40.8273393  66.7993271  33.5789254  41.3208515  66.6687287  32.7224281
  39.9248955  66.8347061  33.1684982  41.1861131  67.1910382  22.4576784
  41.9187868  67.5161654  22.9722777  41.0818684  67.9468290  21.8335175
  29.6949695  78.2434787  29.7476911  29.1571802  79.0102628  30.0999432
  30.5831250  78.5818142  29.7726172  29.4665077  62.9285780  25.4777764
  30.2435044  62.3867804  25.8855551  29.5685591  63.7400257  26.0211768
  40.6245712  66.0067348  25.8883856  41.4155134  66.1818722  26.4611722
  39.9182862  65.9269730  26.5819711  49.4531268  69.4638288  19.0049470
  48.6690428  70.0997993  19.0190595  49.1289561  68.9325505  18.2448918
  42.8780504  58.4568005  15.6198468  42.9236711  58.2534961  14.6753042
  42.5169607  59.3502565  15.6652642  27.2801082  66.6656649  16.6545479
  27.0945942  67.5928802  16.8579033  27.1500466  66.2547711  17.5225882
  43.0096844  76.6522912  35.6306177  43.1509011  76.0932585  36.4255335
  42.4291567  76.0716904  35.0928848  20.6916151  65.1481490  18.9550589
  21.6168674  65.1594843  19.2300615  20.7337538  65.3840882  18.0140219
  37.6078892  66.5988591  20.5256403  37.4612987  65.8375504  21.0524560
  38.1141965  66.2881216  19.7765088  63.9673861  30.3397887  70.5295402
  64.1211473  29.3848226  70.2150394  64.4235621  30.2496753  71.4331961
  28.0369908  60.3758010  27.0345129  27.9584184  59.6710900  27.7139090
  28.9370207  60.7227919  27.2273347  43.6988977  77.1375703  17.6974819
  44.4602959  76.7643458  18.2338859  43.9071210  78.1017136  17.7677912
  42.0578243  64.4697322  24.0377729  41.6317896  64.4526678  23.1802080
  41.7870463  65.3207505  24.3843864  36.4313966  69.9736603  25.4945900
  36.9589940  69.1273494  25.6340739  35.5748699  69.5701560  25.5449507
  51.4930466  11.9194861  20.3239934  51.8653992  12.7624713  20.6360190
  51.6586598  11.9538352  19.3602397  46.0437410  67.6494066  30.2297911
  45.8839156  68.5059305  30.7015794  46.7923574  67.3821801  30.8277981
  44.2697497  65.5835383  34.5085366  44.6674748  66.2450437  35.0945628
  44.9095948  65.6476680  33.7560215  27.8180623  75.3453242   8.5563530
  28.2589820  75.6742842   9.3822526  27.5635358  74.4720760   8.8036511
  44.8986483  67.9391977  27.5456146  45.6128414  68.0417450  26.9004444
  45.4275741  67.7866336  28.3578445  62.5510705  11.6667978  28.4606255
  62.1190630  11.7305887  27.5883109  63.0747774  10.8329474  28.3058885
  42.4649327  74.2146075  27.6694591  42.2244362  73.3674222  27.3425513
  43.4475969  74.0049502  27.7707382  37.1130153  70.5406576  33.5318877
  36.7722337  70.1034863  32.7320989  38.0065653  70.8095465  33.1928739
  45.0088168  76.6495694  24.0940385  45.3987632  77.0292486  23.3061310
  45.0519555  75.7193531  23.8484882  25.1651074  75.8795456  24.7701395
  25.9559192  75.6668668  25.3275649  24.4566059  75.4579053  25.3622410
  36.8657413  63.1829130  27.0836471  37.4594853  62.4850236  27.4538681
  36.0235201  62.7879113  27.4204268  29.1916297  62.7855880  18.0253203
  29.4295360  63.1122380  17.1339675  29.0342751  63.6254205  18.4908980
  30.9668988  63.8752785  13.0859485  31.2536911  64.6637895  12.6219408
  30.7236526  63.3043709  12.2941351  23.6265648  70.4532148  37.5136781
  23.6190146  70.6827398  38.4345565  22.6960547  70.0725575  37.4531693
  40.1601966  77.0473067  19.8598933  40.5806432  77.7440453  20.4205547
  39.3314750  77.5103872  19.6485340  24.6269238  66.4180574  31.7854336
  24.5499065  67.0372037  32.5359298  25.4210584  66.8532180  31.3278735
  64.0068784   9.6106033  27.9757063  64.8127339   9.1329891  27.5840170
  63.4332399   8.8870698  28.1379126  55.2575365   6.1845904  33.3328465
  55.2133790   5.7622674  32.4177761  55.9258732   5.6293292  33.7248972
  39.9031050  70.9639069  29.2009345  39.2572078  71.6591596  29.2987082
  40.3161473  71.1020547  28.3202546  52.3459150   4.3200839  27.0106040
  51.8953151   5.1678695  26.8081897  51.6283006   3.8860330  27.5047609
  55.0613284   4.8731613  15.9180922  54.3770424   4.8487779  16.6292639
  54.6729606   4.2425579  15.3038780  38.4561570  67.1904346  31.5840435
  38.8854255  66.5385229  31.0431479  37.9277906  66.6551637  32.1721986
  37.9189134  65.7252537  27.5315796  37.4017349  65.6642195  28.3567702
  37.8160298  64.8556382  27.1852811  32.7338540  61.5110103   9.7753232
  31.9104330  61.9434884  10.1734414  32.3604487  60.6238986   9.5666009
  66.0426089  10.8610851  29.0100134  65.2285840  10.6174665  28.5538392
  65.7814980  11.7479728  29.4220266  23.0489850  67.4144111  25.2099047
  23.5797627  67.8369533  25.8944021  22.4249130  66.8735736  25.7651434
  35.9535481  63.5110474  21.9939524  34.9533511  63.6531392  21.9539718
  36.0377361  63.5480476  22.9426306  48.0603427  70.7768668  26.9712474
  48.3817466  71.1398359  27.8231262  48.5422086  69.8832744  26.9819232
  39.2482380  71.0349723  26.3244988  39.2905446  70.7367776  25.4164388
  39.1891165  70.2137654  26.8173419  26.3255495  67.6520264  22.4385454
  26.8948857  68.3419647  22.1208103  25.5202523  68.0303788  22.7252874
  40.1332526  76.4689593  38.8398777  39.4877974  76.3561506  38.0786140
  40.9087402  76.1699245  38.3766395  37.2635282  70.8069241  21.6989794
  36.9874438  71.3060528  22.4966154  37.3685519  69.8963982  22.1130345
  41.1949314  73.1308663  36.0103488  41.2935905  72.1661170  36.0406224
  40.2453540  73.1904764  36.2840368  40.0882813  77.9280587  41.0834368
  41.0792277  78.1056892  40.9379854  39.9799535  77.3601154  40.2853135
  33.4125898  68.0214462  28.4517817  32.6552937  68.5628624  28.6773117
  33.5715220  67.6055603  29.3106172  23.5670027  66.3072764  17.3631647
  22.9741188  66.3037915  16.5319859  24.0603266  67.1184338  17.3143374
  29.1246741  59.4527231  29.5666575  28.8507988  60.2638913  30.1157489
  28.9734146  58.7680377  30.2398554  25.7834448  67.9726829  11.4009831
  26.0229281  67.3021926  10.6921179  26.6620407  68.1179010  11.8154750
  16.7897264  62.6121265  27.5532079  17.0853347  62.0665531  26.7683618
  17.6130146  62.6945597  28.0501993  26.9997499  67.8768211  40.1673410
  26.2869236  68.0588052  39.5440307  26.5044488  67.6459297  40.9666347
  34.4155803  66.3569454  24.8485044  35.4124167  66.4349123  24.9721359
  34.3859153  65.5914856  24.2659943  25.3343881  63.2177336  17.9670804
  25.7842082  63.2748168  18.8324762  24.9879141  64.1491706  17.8354419
  29.9658629  67.3422719  43.2035498  29.8427757  66.7993773  43.9488023
  30.1594910  68.2210952  43.5493929  44.3765956  62.4007696  16.3883343
  43.4114333  62.3585001  16.1364796  44.7372243  61.6428554  15.8773644
  36.6755642  67.0883265  10.5530489  37.5246124  67.3386968  10.9568691
  36.7579936  66.1015544  10.6407897  27.6851810  74.3040616  13.9550101
  27.0194132  74.7339555  13.4316613  27.3146322  73.3876067  14.0274171
  65.3083459  11.3694992  19.8221521  65.0964081  11.0845771  20.7119627
  66.2369798  11.3761248  19.7585567  30.6742324  66.0527249  21.7280600
  31.0323195  66.3090421  22.6305694  30.2281011  65.2197163  22.0504534
  25.9516354  72.4224652  27.4797137  25.5401531  73.1704578  27.9789134
  25.6937752  71.6678685  28.0715070  38.1786260  68.3365981  22.5028693
  38.1991482  67.7653264  21.6959649  38.8213884  67.7847355  23.0432808
  44.7793945  65.1504889  16.0039835  44.5252559  64.2021352  16.1823581
  45.4375553  64.9499158  15.2927595  63.4003193   7.4319787  15.1615039
  63.6016058   7.6457606  16.0466551  63.8779396   8.1240783  14.6139325
  23.7168991  69.2926365  23.3453711  24.0792270  69.9899656  23.9617499
  23.4962439  68.5794693  24.0505841  47.1347230  84.5791325  23.3240834
  47.7912475  83.8498783  23.3950751  47.5731604  85.0053980  22.5454839
  34.3102522  72.5306333  32.3792724  34.7967097  72.9262165  33.1197188
  35.0225438  72.4716567  31.6757219  36.9970594  79.3576006  41.8266793
  37.8730726  79.7795965  41.7756990  36.5507185  79.6908732  41.0397603
  44.3453852  63.7080926  28.4572219  44.2054693  62.9179670  27.8471220
  45.3140683  63.8634828  28.2420579  34.9276057  62.7407260  29.9361652
  34.0454242  63.1121250  30.3336937  34.4900039  62.0867596  29.3383433
  37.5088188  77.5592616  47.1043388  38.3295237  78.0911532  46.7549363
  37.1090222  78.3466167  47.5838813  72.1746873  14.1898816  36.5415040
  72.4153717  14.6911654  35.7319001  72.6181603  13.3417574  36.4010948
  42.9309520  70.9054053  28.4202000  42.9376713  70.5605861  29.3165216
  43.6501103  71.5223359  28.3964700  52.2822126  71.1864628  28.2805600
  52.0822255  70.3398794  27.8212943  52.2152681  71.8138118  27.5291721
  34.4269509  73.1247719  23.1065872  33.8275920  72.3781617  23.2713591
  35.2814426  72.7638528  23.2818816  31.3406606  61.4097900  26.3552881
  31.6616814  61.0938471  27.2339149  31.7570756  60.7624437  25.7737609
  25.6402799  62.5998190  12.3395256  25.0242292  63.3658560  12.1829328
  24.9340657  61.8752129  12.4327390  44.6407911  64.4331834  21.3802962
  44.8495787  65.2530034  21.8773509  43.6750655  64.4470591  21.4649742
  31.9009303  63.5233435  28.9548489  31.8446214  62.6151280  28.6557319
  32.4448277  63.9487238  28.2279097  46.9243811  64.8513024  27.2697658
  47.7838367  64.4969202  26.8879245  46.4518789  64.8519498  26.3979917
  22.2011934  57.3288864  16.6589315  22.4148271  57.7623057  17.4913478
  23.1662310  57.1676405  16.3524387  37.0237109  77.7576371  26.9894113
  36.5153242  77.1283681  26.4828651  37.4682578  78.2922509  26.3022686
  49.6779257  60.6312655  27.0624533  50.1002377  61.0282256  27.8769784
  48.7784563  60.9475980  27.0640930  39.7787459  69.9788475  24.0799434
  39.1614511  69.4088530  23.6140889  40.5957644  69.6888061  23.6336708
  45.6458801  69.6597334  32.2601512  44.7637376  69.2283174  32.6357819
  46.0223592  69.8211795  33.1785960  38.3387036  61.1184093   9.2435256
  37.3533993  60.9266121   9.4832415  38.3192171  60.7511431   8.3355789
  46.0870526   7.0584140  33.9230099  46.1168273   6.3744940  34.5928925
  45.5844794   7.7730986  34.3579702  41.0161240  67.1500257  29.2765753
  41.5705380  66.8424069  28.5438695  41.2204148  66.5274356  29.9733487
  30.8997881  64.1146590   8.6250979  30.1318863  63.7509559   8.2509781
  30.5342600  64.6979663   9.3329415  31.3804915  59.8482499  22.4225965
  31.9699402  59.8601065  23.1951664  30.6643745  60.4145934  22.7739162
  26.0427393  61.5304417  35.4862745  26.7237639  61.8327945  36.1230136
  25.4839793  60.9862496  36.0838773  32.5434100  62.6240351  18.4224191
  31.8728864  63.1901806  17.9511950  33.1151018  63.3509128  18.8453743
  46.6567644  64.1626018  14.2693121  47.1338411  63.3411437  14.5218574
  46.4479039  63.8695950  13.3229464  53.3761496  64.7124596  17.9065258
  54.1805203  64.1431606  17.8759502  52.7111555  64.1371105  17.5173120
  35.3204347  74.5748388  38.3672077  35.2914389  74.4251126  39.3215225
  35.6331829  73.7743659  37.9849747  27.8976856  71.5412146  23.5257240
  28.5960558  70.8716068  23.6789781  27.3529538  71.1071883  22.8411595
  44.6458061  58.8451352  26.1225603  45.2455086  59.1029652  25.3515621
  45.2848864  58.3770883  26.6704487  48.0876514  65.0537535  24.7326184
  48.8707447  64.4494490  24.7927344  47.6191794  64.6713344  23.9998590
  56.7356306   7.0637624  14.3983450  57.2181483   7.1412349  13.5569086
  56.7315532   6.1201953  14.5195358  42.0307549  71.7926707  25.9426775
  41.0469469  71.5872901  25.9041594  42.3065623  71.0009156  26.5040108
  49.0931836  74.0652046  22.8962185  49.9892476  73.8885403  22.4988602
  49.1912157  73.4284053  23.6808316  45.0050510  72.6741280  28.2393790
  45.7085826  73.3659699  28.3388592  45.2512968  72.0636183  28.9924833
  17.6759744  40.3048778  67.0550989  18.4459374  40.8740090  66.8712626
  16.9143763  40.8120477  66.8137837  38.5668850  71.9623704  14.2216939
  37.7830602  71.4174944  14.1876214  39.2191689  71.3808970  14.6720675
  22.2148568  69.9854118  33.8350816  21.3271791  70.2625673  33.5057817
  22.7888384  70.5409434  33.2556068  54.3902749  11.1293380  45.6382710
  53.4514290  11.0461738  45.8424969  54.7169424  10.4274947  46.2461243
  28.6077725  71.3015800  16.5308566  29.6001166  71.4900605  16.6181076
  28.3327591  72.2441858  16.7717710  29.3728952  69.2962166  30.5259240
  29.0260480  69.9028483  29.8360306  30.2918747  69.1886921  30.1757619
  67.5471496  10.2360345  40.8212862  68.3863345  10.1418046  40.3488616
  67.7412956  10.8327286  41.5534592   7.8442940  20.7991377  28.0384731
   8.4412194  21.5009001  27.7795615   7.4593493  21.1832742  28.8781245
  48.7855235  82.5518551  36.9095992  48.7863752  83.1034155  36.0601947
  48.9450571  83.2785480  37.5195177  70.3236188  10.9246190  32.7099873
  69.7326726  10.6051304  33.3721742  69.7829043  10.9910338  31.9186635
  39.1844224  76.4926499  16.7883357  39.2076984  77.4120040  16.5133204
  40.0979154  76.2895480  17.0286464  35.8227168  79.5572143  18.0332784
  34.9916122  79.0665474  17.9986714  35.9035544  79.8350873  17.0935034
  43.9544071  77.6372886  15.0618813  43.9096269  77.3725514  15.9630930
  43.0675724  77.6808204  14.7512194  72.2556432  15.8371984  25.4025706
  72.7608638  15.3108193  25.9968170  72.4668993  15.3511241  24.5799242
  45.7280602  71.6816827  30.4918649  45.7976082  70.9355361  31.1406906
  45.5171792  72.3716420  31.1408592  44.8646353  81.0932625  27.9850407
  44.4575285  80.8049850  28.8010570  45.7560523  81.3256818  28.3693217
  39.4540886  76.1378854  31.5005389  39.7272395  77.0241368  31.8691950
  40.2228558  76.0277432  30.8931141  49.9455900  74.1524643  28.5217531
  49.8549176  73.2157071  28.7546196  50.7468408  74.3773585  29.0849963
  73.9980806  10.8828867  26.4186963  74.9625471  11.1204906  26.3560055
  73.9718129  10.2727489  25.6219901  43.8140193  76.8784373  31.1592674
  44.7806999  76.6889983  31.1215505  43.7386738  77.1009485  32.0964681
  21.9014846  45.8918082  74.4601238  21.0051271  45.9699443  74.2447469
  21.9942757  45.3837605  75.2777285   7.5012891  21.1638214  36.3915173
   7.1251404  21.5249696  35.5321744   6.6696375  21.2288646  36.9263099
  65.7684952  13.5310552  30.1807822  65.3074354  13.2938138  31.0269580
  66.5984009  13.8723599  30.5346585  18.1054575  42.8368583  80.6601109
  17.2693217  43.1441922  80.3183680  18.7344410  43.2238023  80.0088278
  50.5858732  81.8839750  33.7358235  50.6559586  81.9579548  34.7053754
  51.5073615  81.7705641  33.5187075  14.0276392  10.7716377  20.0974096
  13.1786537  11.0858561  20.5442502  14.1528457  11.5799859  19.5717645
   9.5852501  23.4461971  17.1296730   9.5056699  23.1090944  16.2375355
   9.5195612  22.6691132  17.6787102  30.3609613  61.6341489  77.9323978
  30.3693517  61.1199824  78.7502837  30.7165365  60.9676390  77.2723685
  28.2644991  45.6346447  84.1047874  28.4490359  46.5464368  84.3787331
  27.2940415  45.5533144  84.2704873  45.2284781  47.0805001  80.3754549
  45.1594329  48.0139682  80.5214351  45.5818227  46.7775641  81.2149407
  52.9802460  77.9344177  24.6745471  52.3508948  78.3641685  24.0657388
  52.7598431  76.9946031  24.6430870  30.7789290  49.9495670  81.1647872
  29.9006359  50.3967879  81.3532870  31.2262933  50.1224287  81.9811828
  37.8910526  48.6857657  80.6464401  37.3619165  49.5063056  80.7654551
  38.7420951  48.9770970  81.0243945  16.5424415  47.1914703  75.2638083
  16.4304243  47.3810611  74.3174179  17.0076471  48.0336714  75.5707956
  61.9386628  71.4742149  28.3455344  61.6154198  70.5974776  28.1861890
  61.6666057  71.9630182  27.5626587  28.6681653  58.9886043  70.9238631
  28.6884782  58.7023769  71.8451991  28.4493677  59.9324739  70.9980186
  20.7533276   8.2686810  25.0955285  20.8380050   9.0805082  25.5638180
  21.3072800   8.3768626  24.3032454  28.2815037  64.2277670  69.7408242
  29.2067076  64.3443010  69.3832354  28.1151218  65.2397908  69.8312624
  26.9579663  45.2916006  77.4393223  26.7738905  45.9257798  76.7177391
  27.8383391  44.9673421  77.1031304  36.5352594  57.9935399  75.6125477
  36.9468376  58.1847727  74.7289245  35.9160338  57.2698278  75.4192244
  61.3729912  67.5530907  19.2469430  60.6611843  66.9226655  19.0728147
  61.8517464  67.1038053  20.0138744  34.7396271  56.3001458  74.7726704
  33.7493228  56.6251416  74.6202937  34.5528154  55.3533178  74.7221414
  26.3054898  50.4032759  84.0515002  26.3135355  49.8957545  84.9036541
  25.7457666  49.8658623  83.5125314  39.3619726  42.1988050  83.7142748
  39.6145515  42.9434082  84.2379956  39.1078555  41.4903443  84.3066332
  15.3679198  22.7037124  16.4024082  14.7996772  22.0509576  16.7532737
  15.6665620  23.2059667  17.2041141  24.9109214  59.6688547  80.4737740
  24.7048622  58.7365408  80.7788737  25.4977736  59.8844349  81.2301112
  28.2529257  63.0971604  66.3016091  28.9666136  63.3789457  66.9014878
  27.9476053  63.9016432  65.9261203  13.6857955  24.9595741  17.6693158
  14.4060906  24.6218019  18.1997750  12.8882696  24.7043808  18.2047968
  31.5725395  60.2517859  76.0342042  32.5654997  60.2359582  75.9291345
  31.3068388  59.8726979  75.1534277  38.5681598  54.6598300  73.8803204
  37.8536044  54.4023458  74.4882208  38.1894982  54.3254024  73.0428619
  15.4641306  35.3019477  22.0436122  14.8286244  34.8173706  21.5599488
  16.1073884  35.6126371  21.3486522   5.9386004  24.4550894  15.2707256
   6.1956042  24.4228911  16.1932084   5.6216508  23.5732314  15.0532311
  29.5786885  17.7958757  15.4503235  30.0909034  17.8436873  14.6415384
  30.2688189  17.6161581  16.1723304  41.1277278  70.3429808  64.8826521
  41.7980643  69.8715358  65.3935653  40.6203421  69.5798751  64.4475873
  28.1161607  24.8827616  13.8003419  27.2025913  24.5712428  13.6841017
  28.5861490  24.0672788  14.1387444  16.5996089  33.2507955  15.9401531
  16.4586054  33.9157727  15.2573488  15.6845355  33.2408173  16.3206212
  45.6000855  50.4993802  71.6630710  46.3612302  50.9023898  71.2482958
  45.9711479  49.6104019  71.8137125  15.2798989  32.7785064  20.3015291
  14.6714587  32.1749714  19.8278701  15.9205293  32.1587019  20.7456925
  18.2219914  23.2591538  25.5395999  18.3689677  22.5615236  26.2445850
  18.6965231  22.7952670  24.8145676  25.8102949  18.2492261  17.6272166
  25.1144329  18.8619480  18.0320425  26.4628413  18.9821136  17.4542013
  40.1316597  56.8214682  73.8891795  40.0914827  57.4828815  74.6541882
  39.3895629  56.2703275  74.0480248  36.7925579  62.7699410  75.4767604
  36.2538635  62.1666282  76.0483466  37.4511842  62.2421696  75.1583107
  38.9585677  51.0541727  73.6852881  38.5142074  51.5010230  72.9464775
  38.3642631  50.2459064  73.7209967  40.7111603  53.1332423  74.4834403
  40.2249167  52.3471539  74.2020764  39.9512367  53.7851731  74.2986647
  16.4166533  16.9479823  23.3434948  15.6336405  16.8865421  22.7204221
  16.9581207  16.2504750  22.9614110  18.3044347  15.8078282  21.2976299
  18.7525422  15.3669927  22.0134495  18.4474240  15.2046532  20.5302825
  20.2905924  20.5834830  11.0842223  19.9434296  20.2378477  10.2417108
  20.0986801  19.8159363  11.6330823  23.9621245  18.0119529  25.8956695
  23.2483166  17.9615525  26.5932457  24.5897112  18.6188921  26.2711703
  56.7417633  64.3456783  66.0572894  57.0704814  63.5178193  65.7948657
  55.8219587  64.1588579  66.3553159  44.6320493  52.9766079  72.2977519
  44.8979420  52.0583314  71.9912989  45.4868759  53.4117365  72.1075157
  11.7140818  24.3932599  19.5315660  10.8437336  24.8423564  19.3023852
  12.1928394  25.2412752  19.8519783  11.2981822  15.2847885  23.4975087
  12.2167651  15.0404173  23.2522088  11.4790943  15.6595778  24.4150053
  37.8208298  70.8643155  66.6781506  37.1215071  71.4707445  66.9581647
  37.3937581  70.4485928  65.8885393   3.4506493  16.9848789  22.4705609
   2.7226151  17.0453073  23.1485860   3.7817358  16.0746014  22.7542654
   7.3084912  11.9053886  26.8979024   7.3898009  11.0790265  27.3950458
   7.4394265  12.6219700  27.5415803   9.4028493  28.1774194  22.2977276
   9.3239998  28.9263043  22.9559759   9.2934842  28.8122863  21.4692788
   5.5426861  37.2330023  30.7198453   5.4950751  36.6204429  29.9858506
   6.1345797  36.7962794  31.3642970  10.0502876  29.1371468  10.2130063
  10.1034558  30.0364842  10.5630973  10.8010018  28.7314070  10.7418489
  30.5281016  23.6183770  12.9465165  30.4632472  22.6770259  13.0994578
  31.1150647  23.9212552  13.5967833  34.8978329  63.9608488  68.3007818
  34.6483021  63.0797352  68.6702698  35.7966305  63.7050230  67.9877805
  34.0458090  42.0424023  78.0204704  34.9222556  41.8556156  78.4104859
  33.6425163  41.1369203  78.1574160  41.8617774  64.5765551  72.4596273
  41.5556000  65.4658125  72.2100947  42.0506083  64.7503212  73.4426245
  37.8918657  55.8984133  77.5891305  37.7209459  56.7942856  77.3620574
  37.4409612  55.4130085  76.8784758   3.0581785  23.3458807  24.8638515
   3.9790130  23.6652537  24.7248777   3.1781551  22.7088734  25.5864966
   8.1363497  30.6329129  20.8776757   8.6382759  31.3033472  21.4129931
   7.2884053  30.5618723  21.3775370  10.3193879  39.3775016  19.8277291
  10.6165768  40.3237893  20.0168728  10.2691209  39.4099123  18.8839296
  15.0398611  33.7342128   8.8854278  16.0277279  33.5727281   8.8452725
  14.8099889  32.7517686   8.9807625  11.0965997  36.5340965  31.5100959
  11.9235646  36.6056659  31.9913550  11.1752261  35.6222771  31.1048077
  43.8391844  49.0768453  78.3450067  44.2822086  48.1687569  78.0870332
  43.3670943  49.2333373  77.5105835  20.9060364  19.0413194  21.6094621
  21.4128801  18.5330400  22.3183460  21.6529130  19.2469852  21.0348659
  43.6711396  63.7968960  66.3068178  43.5291924  64.6106226  66.8447234
  43.0193144  63.1893557  66.7630315  23.9159714  29.4106699  18.4741154
  22.9851755  29.0920726  18.2708332  24.4805187  28.7645931  18.0506391
  28.5286731  10.5189883  25.8456100  28.6403357   9.8194750  25.2366239
  27.8933784  11.0963785  25.4448268  19.9806930  24.0990586  16.8849900
  20.8152711  23.9379041  17.2802630  19.2690430  24.0778954  17.5422035
  50.6992945  62.6207609  67.4715517  49.7845442  62.7850421  67.7732893
  50.5852340  62.5001761  66.5149078  42.9547759  55.1006478  63.0033899
  43.2445917  54.2357929  62.6245135  42.4295127  55.4878900  62.2634994
  23.5902129  27.5473436   4.9711033  23.8682949  28.3984824   5.3253734
  24.3153099  26.9468525   5.1714005  28.9036812  30.0683337  25.3148332
  29.4189063  29.6401675  26.0615000  29.2554567  31.0246479  25.4940366
  46.3459910  56.0693719  74.2101111  45.6869319  55.3658315  74.5723511
  47.1301131  55.7448867  74.7505004  32.6088683  75.5697527  69.8992152
  32.9530475  76.4559290  69.5887748  32.6337184  75.1663767  69.0058491
  52.1321731  58.5051262  71.3073620  51.7612255  58.5844050  70.4129686
  51.7616107  59.2722821  71.8080294  16.6629500  35.2454412  14.0609645
  16.9812774  36.1563169  14.2141964  15.8889872  35.3793920  13.4775113
  44.6271988  51.3949805  79.5518234  44.1565099  51.0941298  80.3583353
  44.2622144  50.7534202  78.9348415  48.7205312  44.7504816  75.9503451
  49.1908811  45.6207009  75.8496774  49.4814257  44.1560976  75.9628232
  39.0102483  57.8172863  71.4457465  39.5836215  57.5518704  72.1753639
  39.7112413  58.2679494  70.8609645  16.5045891  29.0795469  13.6431534
  16.5740959  29.2619330  12.6809214  17.3915715  28.6391200  13.7949550
   6.2380689  33.6135811  21.7622033   6.8334525  33.5413975  21.0016577
   6.4815329  34.5367747  22.0065588  38.8506472  64.8317530  71.2608992
  38.3732604  64.7165515  72.1117226  38.4558586  65.7112724  70.9727300
  30.1531304  55.6792598  80.6382568  30.6104409  56.1092191  81.3596190
  30.2859232  54.7267080  80.7802385  26.0037308  28.1932951  17.1997254
  26.1440308  27.1980887  17.1051336  26.2513347  28.4744573  16.2964175
  31.3288258  45.6474587  75.2246268  31.5163110  46.4222567  75.7260064
  31.6557333  44.9271710  75.7709436  24.2113950  26.8072855  23.3325773
  23.6368256  26.4004381  24.0475407  23.6456153  26.8040801  22.5359321
  50.2373565  53.8840451  72.5654695  50.4955056  53.7321501  71.6569121
  50.6384400  54.7665622  72.7104620  11.8806635  41.1602651  28.8439922
  11.0839600  41.5524188  28.4931324  11.6327271  40.2454253  29.0369017
  39.7552734  69.4800834  67.7046991  39.1479284  70.1428926  67.2556253
  39.6604333  68.8023615  67.0318794  27.9200593  73.1296798  65.5379995
  28.8461025  72.7440277  65.6044797  27.7888425  72.9736285  64.5370728
  18.9578042  12.5442650  27.7931699  18.7276694  11.7629186  28.2533232
  19.5132823  12.2024117  27.0418074  27.7180292  56.5348423  83.6659922
  28.2930266  57.2308210  84.0568773  28.3045233  55.8830763  83.3581501
  26.9788509  36.2099864  12.7680939  26.5487254  36.8953898  12.2521473
  26.3320095  35.6144142  13.0702914  27.8219378  47.3976702  75.8523358
  28.2506204  48.1697281  75.3835141  28.0052571  46.6941144  75.2323153
   6.9038705  44.0414139   5.5417856   6.9709972  43.9143480   4.5646399
   7.4564003  44.7831283   5.6731955  46.7380986  53.3184929  74.8129409
  47.4069181  52.6039405  74.6141712  45.9907657  52.7717654  75.1309112
  26.7340674  61.1172990  64.8557590  27.3218517  60.3976165  64.7193718
  27.3228120  61.7252260  65.4445199  18.7691469  18.8397120  12.5494863
  18.4227671  18.2272580  13.1889776  18.0125387  19.0404360  12.0098399
  23.8963135  62.3973337  68.1818658  23.6311221  61.8521743  67.3594652
  24.2892196  61.6083104  68.6781993  25.0057256  29.4878343  23.9678658
  24.5719660  28.6061097  23.8929025  24.8029440  29.8489258  23.0789928
  20.6235489  34.6427813  15.3773006  20.1031101  35.4305430  15.2379405
  20.5821322  34.2131773  14.5010392  40.7086668  58.6368887  76.3151471
  40.6013081  58.5649238  77.2533625  41.3241611  59.4764715  76.3490918
  26.2850021  23.0481573  12.4606986  27.0492723  23.1378033  11.8893897
  25.5465265  23.1539597  11.8304223   0.4830048  21.9629157  20.6428751
   0.3695189  22.7718064  21.1842290   1.3250641  21.6334862  21.0444323
  14.0773177  31.3004974   8.5536554  13.1736258  31.0860623   8.2771520
  14.6067572  31.1536330   7.7560053  33.5218832  53.4211473  79.6985930
  34.3652823  53.8628899  79.8685129  33.3226946  53.0223205  80.5574684
  48.9514554  51.6090711  73.6167094  49.4807066  52.4488607  73.4009117
  49.0804249  51.0974232  72.8481348  24.1556486  31.1377323  14.8478202
  23.7477931  31.8956076  15.3398807  23.3283982  30.8673538  14.3149019
  14.2158842  36.4064772   7.3809305  13.7564290  36.3430248   6.4838595
  14.1847856  35.4489242   7.6735440  17.0596116  34.0286696  18.7017180
  17.1168823  33.9059237  17.7836899  16.1689545  33.7197856  18.9679100
  41.9616843  62.0823254  71.6297987  41.7525162  63.0093614  71.8497474
  42.9112396  62.1716708  71.9077023  11.6112014  34.3137882  16.4778285
  12.4758674  33.9216183  16.3642934  11.7814067  35.2559623  16.5759321
   6.3506626  44.6224917  10.7930648   6.8727877  43.8857985  11.2407559
   5.5552230  44.0791429  10.5526128  73.1715884  16.9823982  15.4229953
  73.4504196  17.7125633  16.0569523  73.0657180  16.2418824  16.0805451
  31.2143156  53.1590799  73.8863167  30.9067009  53.8681142  74.4494782
  31.0486274  52.4250923  74.5357444  20.1564922  25.1100356  14.3131800
  20.3461063  24.8996103  15.2373925  20.3442104  24.2055415  13.8850083
  15.5397912  31.1579974   6.3144803  15.4407566  31.7926080   5.5312481
  16.4332811  31.4932534   6.6152113  24.5172207  25.6219416  14.6281593
  24.5089884  24.6734517  14.3814044  23.5938938  25.8842295  14.4284290
  31.7314783  43.5624296  82.6483246  31.0423012  43.9331410  81.9570273
  32.3117466  43.1494282  81.9599010  35.7413922  67.6511013  69.5460417
  35.0444389  67.2891284  70.1489086  35.2026745  68.1849059  68.9203880
  22.3029326  29.5956724  13.4442247  21.6681932  29.5116335  14.1040392
  22.5637675  28.6530675  13.2919631  38.7132178  42.4605010  75.1294031
  38.1895969  41.7736639  74.7443746  38.6887567  43.1408471  74.3908671
  55.7643969  49.4662422  76.0272172  55.8425826  50.4710903  75.8701989
  56.4010990  49.1483409  75.3323043  17.8496274  18.3978506  20.6483330
  17.9208748  17.4079089  20.8101841  18.6270167  18.6990945  21.0647117
  23.1454312  12.6770259  13.9472206  23.9276786  13.1319264  14.2001572
  23.1360429  12.9629106  12.9811194   7.3088479  20.6917759  16.7402808
   6.8679447  21.1116521  16.0151612   6.5692122  20.2107432  17.1474727
  11.5514514  35.1218337  19.7839789  11.4070637  35.0529259  20.7758530
  12.4724415  34.7859808  19.7494002   4.9102344  19.0174968  18.1170970
   4.2247376  19.5704003  18.5822067   5.1330644  18.4153014  18.8371768
  58.2196154  61.7066906  61.7321899  59.1454820  61.9565062  61.6172589
  57.8081804  62.3483938  61.1005581  48.6810982  66.2428360  64.9611736
  47.7900673  66.1861404  65.3818702  49.2744784  66.2318146  65.7296332
  76.3509221  25.6927393  30.1125531  75.7974715  26.1441492  29.4143989
  76.0773635  26.1816166  30.9214021  17.9811139  22.7788181   9.8006873
  18.1426714  21.9632028   9.3544842  17.8353183  22.4854614  10.7143390
  15.6275367  34.6709508  24.5747079  15.7690689  35.6029874  24.9602236
  15.6496129  34.8435320  23.6285488   2.0868346  40.3648639   8.2637937
   1.5592481  40.9481731   8.8724810   1.5013294  40.5822990   7.4412203
   7.1377628  29.2831526  10.6212224   8.1027733  29.4136258  10.4673899
   6.9285088  28.5356794  10.0263053  14.8081539  33.5152648  27.0612633
  15.4948387  33.5770810  26.3750347  15.1618287  32.8523735  27.6628228
  12.8573632  26.8592652  20.1717331  13.7332092  27.1389951  20.6275897
  12.2452545  27.3266205  20.7735335   8.7871143  30.2906978  23.9572344
   8.5567795  30.3217539  24.9276872   7.8353532  30.4882346  23.6463594
  18.6501751  27.2610638  14.2547902  17.7865895  26.7616250  14.4261766
  19.2700750  26.4470374  14.2800023  20.2257428  20.5221110  18.9415829
  20.5805325  21.4164679  18.9625886  20.9240342  20.0514018  19.4569703
  31.3888444  16.8859784  20.9884970  30.6833277  17.3836934  21.4039385
  30.9812171  16.3445890  20.3744828   7.8942254  19.0675297  19.4433471
   8.3278433  18.8877778  20.2215297   8.2066696  19.9069725  19.0910267
  15.6963981  23.2552974  28.3196764  15.1292843  23.6793861  29.0163233
  16.5706578  23.3664493  28.7083981  54.1546138  52.9259770  64.4513611
  55.1069481  53.1072506  64.2462591  53.9515160  53.8529400  64.7777081
  29.7518818  18.6739686  32.4000451  30.5927442  18.1754620  32.4399904
  29.3679870  18.3895337  33.2761541   7.2351641  16.3788280  21.6835325
   7.4241051  16.6385952  22.6709057   8.0341128  16.7409350  21.3090677
  20.3665565  22.8645253  12.9148238  19.6445973  22.5351729  13.4221660
  20.4402976  22.1821347  12.1730317  13.8812609  14.8997888  16.0457771
  12.9027689  14.7628303  16.1094136  13.9221144  15.7304083  15.4861038
  47.2531797  74.2589265  65.1118564  46.5385014  74.9285618  65.0594881
  46.8863664  73.6254096  65.7246239  17.3046185  37.3435948   1.7130974
  17.8199057  37.1379521   2.5617330  16.5183076  37.7313537   2.1394999
  15.8757605  28.6714786  21.0135307  15.9855010  29.5780313  21.3379201
  16.0799503  28.7314499  20.0789413  22.2256357  13.8426748  21.5465027
  21.7527428  13.4650144  20.8120369  21.4378261  14.1659202  22.0921539
  50.4455983  37.0543975  68.3992683  51.3674960  37.2031112  68.7665398
  50.0346080  37.9382551  68.6163877  28.3541127  31.5479272  18.4684518
  28.3051989  30.6855035  18.8775138  27.4202276  31.8170006  18.4467998
  16.0336571  26.2926524  17.7888976  15.0536768  26.3151375  17.6565256
  16.2387770  27.1839859  18.0814177  10.2515055  20.2055199  30.2462190
  11.0762261  19.9423466  30.6402736  10.5018902  20.1858611  29.3194004
  15.6768799  23.5348446  19.0553443  15.1650196  22.8292373  19.4904918
  15.7963336  24.0893190  19.8731857  26.4372653  54.7821292  77.9825585
  25.7079342  55.3367080  78.3333734  26.5447973  54.0889244  78.6179075
  34.3522377  66.4382490  63.7004531  34.6661486  65.5557004  63.8574455
  33.6588138  66.3651811  63.0683921  23.0943233  29.3384224  27.9526211
  22.5249919  29.9101666  28.5410249  22.5895590  29.3961487  27.0853330
  10.5409975  59.9618496  64.3514959  10.7393760  60.8506339  64.0094005
   9.6480120  59.8540727  64.2287742   8.5016443  26.3404092  17.0582495
   8.1451213  25.4927579  17.4240212   9.1515888  25.9828846  16.4637954
  28.0896460  62.2514971  73.2647407  28.2596662  61.9115633  74.1885202
  27.4309397  61.5813127  73.0162354  47.4203772  54.5368671  72.2239201
  48.3792126  54.4477696  72.4015972  47.0860767  54.9672070  73.0110236
  50.6209323  52.3546849  69.9912586  51.0294381  52.1817811  69.1160541
  50.5547195  51.4450844  70.3569642  28.1075805  77.0174180  68.2633831
  29.0219927  76.7692626  67.8934454  27.7120571  76.1276706  68.0725824
  37.0576658  60.6798551  70.2752289  37.7834285  61.3390462  70.4054244
  36.3006387  61.1528540  70.7099825  30.4648353  14.0212752  29.4371410
  30.2688316  13.0766619  29.4832491  29.8945080  14.3649186  30.1845484
  69.0496651  56.3344246  66.5045144  69.6309113  56.4306527  65.7447391
  69.3059367  57.0575620  67.0805977  31.7888325  68.0549965  70.8892656
  31.4311571  67.9498436  71.7966561  31.3888871  68.9506591  70.6866937
  46.7771468  62.9235040  66.1272740  47.3777504  63.1979941  66.9055930
  46.1438005  63.6636966  66.2408705  68.7569022  11.1710703  30.4292638
  68.5136919  12.0908969  30.7117596  68.4562987  11.2111643  29.5056080
  17.6563003  26.6118568  20.7098421  17.2352066  27.4570153  21.0738062
  16.9405564  26.0141200  20.7898543  17.5912771  21.7613081  12.2228531
  17.2545432  21.2798070  12.9775636  17.6154926  20.9926073  11.5701978
  19.1575126  26.7170647  18.3742318  18.7702002  26.5235515  19.2502983
  18.3361852  26.7339468  17.7965442  23.8243807  48.0213397  74.6717915
  24.1422227  48.1886309  75.5822127  23.1942256  47.2999129  74.8024610
  46.1279896  78.0576600  63.2052202  45.2228413  78.4574995  63.0788568
  45.8703718  77.3918713  63.9145925  41.0339157  57.4370797  68.9047897
  41.9437282  57.1303872  68.6907790  41.2164694  58.1418814  69.5911154
  28.4195674  19.6417252  19.9817658  28.0612678  19.6371746  19.0457632
  29.3875611  19.6211747  19.7932846  43.7910469  69.6501508  59.2309338
  44.2971927  69.5560795  60.0337869  43.3030281  70.4940680  59.3795507
  32.8702527  24.4325626  10.1520018  32.8340761  24.9245069  10.9674986
  32.6046525  23.5653551  10.5434464  28.4533351  36.9075860   9.0092746
  28.2911016  37.4333598   8.1467434  29.2855589  37.3652344   9.2623452
  22.6936967  18.0011973  13.2139477  22.7711191  17.0003935  13.3232425
  22.5619194  18.2299030  14.1792119  16.4185220  46.7298916   2.0537671
  17.2226043  47.3624721   2.0511011  15.7354733  47.2914319   2.4405346
  27.8811824  32.8489964  10.8462450  27.6138889  33.7102363  10.4358111
  28.8162631  33.0386068  11.0669054  29.1170257  30.9445232   2.7997628
  28.6054983  31.6308884   2.2414675  29.5650186  30.4256101   2.0443355
  22.6588851  24.1367197  17.7538309  23.5564371  24.0820608  18.1560638
  22.1138958  23.8416591  18.5002963  15.4852400  32.1060443  13.0068701
  15.0062065  31.6567601  12.2409467  15.4789999  33.0358383  12.7134152
  17.0531749  30.6132819  15.8779458  16.9927849  31.5493835  15.6742466
  16.7827441  30.2080042  15.0270357  52.9492720  69.9517578  62.3899328
  52.9917268  69.1236283  62.9503728  51.9523006  70.0528214  62.4085206
  42.1687444  62.4971208  68.2170037  42.8515458  62.4716759  68.9238576
  42.2467119  61.6492320  67.7926684  48.8549517  76.0462728  61.4071395
  48.9349784  76.5522072  62.2098983  49.0789063  75.1505210  61.7611260
  52.7989352  58.3311931  68.4990569  53.5248470  58.8440936  68.0786299
  53.2624816  57.7644763  69.0932995  55.2589310  60.4214124  68.0125223
  54.7789115  61.1034935  68.4687905  55.0142843  60.6983024  67.1097550
  49.9171010  78.9025387  55.2133660  50.4409079  79.1444941  54.4239241
  50.3062213  79.4139526  55.9269156  11.6675832  41.3669015   9.4672059
  12.0458301  40.5102975   9.1779074  11.3128058  41.1162850  10.3621316
  20.7903944  32.9228337  13.0379927  21.1477217  32.3554346  12.2888145
  19.8390606  32.7194882  12.9651572  21.6200834  30.6870381  23.5309671
  22.3735097  30.5360664  24.1456206  22.0517479  31.1244477  22.7882849
  26.0571223  46.1800215   3.8579378  25.1031885  46.5168758   3.7019876
  26.3744366  46.9184383   4.3829710  23.6674818  50.5184900   9.8262743
  24.0110978  49.5269229   9.8753074  22.8565238  50.3447385  10.3988291
  24.6034617  23.2822321   7.5826576  24.7915964  23.7927225   8.4307192
  24.0922261  24.0442768   7.1421752   2.2916167  46.0249336  15.0599135
   2.1244839  45.6082594  15.9314033   1.8127935  45.3068169  14.4866004
  10.0640368  32.3698958  22.5346386  10.4901847  32.9543568  23.2221401
   9.9575427  31.5294459  23.0317449  29.3488529  23.5489297  16.0416990
  30.1709246  23.7201126  16.5947786  29.5123559  22.6601917  15.6963305
  29.6120909  36.1577331  11.8937524  28.7746997  36.2131223  12.4560568
  30.1323160  35.5670960  12.4564572  16.6748022  25.4829474  15.2364833
  15.8617334  25.0477237  15.1306322  16.6049563  25.8189301  16.2033122
  13.3100187  38.9793428   8.4255617  13.7870259  38.8156242   9.2725529
  13.2334119  38.1071089   8.0631054  26.3776677  35.5394716   9.8505290
  25.8229413  36.2410819  10.2382829  27.2199777  36.0909353   9.7045247
  14.2763839  23.7499215  12.0686426  14.8301668  24.5238316  11.8557721
  13.7393416  23.9726750  12.8093898  18.8037856  41.0133000   1.5271244
  19.5286515  41.6586747   1.3240154  18.9687704  40.3403978   0.8430399
  27.9494750  31.1979202  15.5157111  27.4389092  30.6031187  14.9582801
  28.7153800  30.6622579  15.7920480  26.1138051  29.2839693  14.6162637
  25.8571722  28.9235416  13.7262227  25.3369166  29.8737535  14.7419314
  28.8358707  26.6623593  15.8349419  28.0122569  26.4950913  16.3235557
  28.6368087  26.0873195  14.9992873  31.7936075  29.7690329  17.6331261
  30.8751354  29.7669527  17.3218914  32.2378351  30.2855449  16.8905382
  16.0389296  29.1520992  18.2510186  15.1223929  29.0401896  18.1703524
  16.2974150  29.6832247  17.5059291  27.1279122  27.4077247  23.0211453
  26.9878175  28.1237227  23.6996208  26.2216798  27.1037573  22.9125884
  30.9692800  32.2211950  18.4335149  31.2637988  31.3387230  18.1641893
  29.9759655  32.0212857  18.4740466  56.1847249  79.8383866  57.3819510
  55.4074947  79.8668167  57.9726508  56.3839492  78.8561827  57.4066791
  21.3694592  28.0568113   6.1788612  20.8320765  27.3764704   5.8730513
  22.2575429  27.8068247   5.9478685  24.1221499  31.7124417   9.0530667
  24.2401344  32.0043770  10.0243747  24.5768705  32.3841613   8.5578065
  47.8488101  53.9433710  61.2152557  47.4326657  53.0112719  61.3158172
  47.1979311  54.3983974  60.6828455  21.6842599  27.3215208  18.2332954
  21.9008949  26.6572300  17.5431993  20.7243901  27.1480098  18.2972129
  56.7224390  67.2570048  65.6514087  56.6573687  66.3147403  65.9195939
  56.8457890  67.1456151  64.6638052  24.2851494  32.3017913   4.7302247
  23.6911324  32.3433127   5.4816282  24.6917784  33.2100268   4.8036157
  44.9609338  58.1863015  72.9801137  45.5903301  57.6933692  72.3778380
  44.1585372  57.7482903  72.8557870  65.9830554  54.1842460  68.3854688
  66.1832602  54.4299887  67.4373187  66.8682451  54.4140293  68.7786014
  28.3863645  34.1736679   7.0014312  28.3464247  34.9621537   6.3798632
  28.4474459  33.4292118   6.3830643  25.7487837  26.2369231   5.7676431
  25.8545078  25.2635923   5.4629170  26.6145717  26.5408792   5.3503950
  31.8923562  32.7887428   3.9979673  32.8194876  32.5872925   4.2830026
  31.8107373  32.2492515   3.1723627  51.8594186  67.2407311  66.9712726
  50.9355828  66.9795362  67.0159929  52.0887273  67.0830189  67.9233099
  46.6427590  62.6203374  58.2451788  47.4450180  62.1896294  58.6962438
  46.6328126  63.3903632  58.8825781  76.7776389  21.4387887  62.2505469
  76.1348101  20.7168697  62.2022582  76.1367753  22.1798295  61.9888171
  16.3106413   6.8729091  58.0171431  15.6451806   6.5229024  58.6312186
  16.9364818   7.2791096  58.6575937  34.9791410  42.4426553   4.8815787
  35.2184224  41.9844881   5.7536839  35.2226066  43.3406872   5.1021590
  23.0477723  60.7848062  10.2693660  23.2330192  60.6992030  11.2410989
  22.1603967  61.1918707  10.2804698  40.3786026  46.1878937  15.9258720
  40.4097080  46.3211345  15.0132954  40.6630687  47.0720614  16.2778287
  44.8163005  46.7095390   7.1347846  44.1212391  46.1653318   6.6743175
  44.2299190  47.1547060   7.7727049  45.0577786  53.8560140   7.6227303
  45.7873105  54.2004512   7.0400307  44.6171682  53.3450149   6.9260409
  42.8421818  38.7170881  16.2231633  43.3408797  39.3376285  16.8645987
  43.3481367  37.8697561  16.4601874  33.3544722  57.1157445   4.1626679
  32.7207410  57.6092103   3.5639310  32.7124794  56.9812520   4.9544810
  23.9618096  53.3455534  10.8067841  23.0684656  53.3486582  11.1515780
  24.3009312  54.1329044  11.2662285  51.0551044  46.0313097  15.2186999
  51.1383934  45.0923574  15.4418666  51.9091041  46.3742854  15.4782382
  38.1239889  60.2731475   6.8004056  37.3926362  59.8001304   6.3591507
  38.0680686  61.1503822   6.3678036  35.9539670  52.3730904   8.0056374
  36.5563598  51.7914465   7.4849284  35.4746008  51.7318743   8.5449060
  38.6794242  53.3878489   8.3447646  38.7202273  53.6502900   9.2676280
  37.7044672  53.2259744   8.2664177  41.4407491  48.5992905  17.1056316
  42.3356206  48.2107096  17.2961074  41.5700409  48.8833638  16.1622780
  46.6796389  57.4210490   6.8519421  45.7776216  57.4374003   6.4474909
  47.1907703  58.0067615   6.2357537  26.2675967  55.3951299  -3.1624265
  25.3769469  55.0335346  -3.3868304  26.3097111  55.0959466  -2.2331532
  22.0073561  52.7480474   5.1184670  22.8849672  52.8925234   4.7314894
  22.2507625  52.8486296   6.0761053  28.4065683  56.8396452   6.5916765
  27.7794031  57.4996967   6.9683573  27.9987163  56.8000216   5.7042367
  29.2392970  50.1928230   5.4961254  28.7146605  50.6193168   6.2173762
  30.0436961  49.9863121   6.0181571  36.4917649  43.0461254  14.0251891
  37.3949010  43.4720609  13.9213752  36.7522445  42.1547344  14.3691108
  44.2546377  52.6767382  17.2762304  44.8105747  53.4769173  17.0275600
  44.2760657  52.1812066  16.4673629  29.9725297  48.4536710  -1.8893255
  30.5862181  49.2251326  -2.0117392  29.7550671  48.5936528  -0.9365020
  35.5716261  58.6962322   3.8574099  35.3119151  59.3885888   4.5466898
  34.7302995  58.1859546   3.9004349  40.9382378  49.2441651  14.3728787
  40.8977596  50.1739924  14.0191258  41.5564021  48.8742912  13.7306935
  35.3350326  58.9371007   0.9908628  35.1868988  59.8621300   1.2910271
  35.5337101  58.5230745   1.8172184  30.0814417  40.1901988  -3.8331072
  30.9164362  40.6373331  -4.0631105  30.4747203  39.2551977  -3.7480623
  32.9287991  59.2009463   6.2266724  33.3903679  58.4065427   6.5504244
  33.6882646  59.7903520   6.1261808  15.1030800  21.1634210  62.6607641
  15.9762493  21.4954123  62.9498657  14.5681163  21.2633918  63.4489830
  46.5336527  48.8483217   5.4468766  46.0081763  48.0485075   5.5919057
  47.0899876  48.8643549   6.2407426  46.0492116  54.7578848  10.0160103
  45.6590825  54.4614399   9.1782010  45.6599779  54.0745432  10.5616060
  41.3434348  43.4052542  11.6570794  41.4734189  43.9634822  10.8029664
  41.2463173  42.5367382  11.1590861  28.3145047  59.4415552   2.7515140
  28.3218408  59.5760490   3.7165238  28.8540081  60.1989125   2.3936320
  30.8675093  56.5103222   5.0288717  30.8201220  56.5106583   4.0584488
  29.9876481  56.2564296   5.3268327  40.4187782  51.7582986  13.3305319
  41.2385534  52.1292944  13.7945008  39.8282787  52.5198507  13.4227565
  53.0470405  65.2922426  11.7496126  53.6100199  64.8838027  12.4680263
  52.7306815  66.1080930  12.2477963  36.6894290  58.2025102  10.0989713
  35.7821713  57.9444678   9.9243198  36.5398481  59.1216439  10.3817320
  42.4800264  53.8776607  11.3398468  42.4063560  54.4262192  10.5095954
  41.6738011  54.2096550  11.7912415  28.8720958  47.7850428   7.7648271
  27.8879947  47.9013010   7.6579426  28.9053286  47.6453471   8.7122209
  50.5672684  57.2787792   8.3848593  50.4214774  58.2357351   8.2172608
  49.6708167  57.0333512   8.7127974  14.3266840  30.5361313  56.5296480
  13.7048570  31.2404304  56.3332906  14.2392157  30.5069674  57.5270006
  14.9955049  18.7246152  66.0946718  15.6212952  18.5134092  66.7824078
  14.9483468  19.7161394  66.2451076  39.4760949  54.7310554  15.4457433
  39.2264023  55.6918888  15.6634701  40.3941356  54.8635134  15.7514185
   3.8459418  13.4255026  56.1378452   3.7932822  12.5478469  55.6615893
   4.6350172  13.7952081  55.8072598  35.6802369  54.6869807  15.0780388
  36.1960160  54.0102099  14.5880158  35.1105999  54.1778774  15.6378664
  23.7232541  24.5037630  66.0849832  23.9774833  24.9250549  66.8916358
  24.3156720  24.8819024  65.4047385  54.3954371  56.8961097   9.0341286
  54.5111990  56.2706449   8.2818981  55.3555925  57.1307697   9.1707454
  39.2158710  57.2834527  10.0994281  38.3554232  57.7662687  10.1535899
  39.4673641  57.2346043  11.0475536  40.1266242  63.5275850  14.4892357
  40.1098404  63.9913438  13.6887041  39.6383445  64.1649566  15.0800101
  40.5808121  46.1719897  13.0056884  41.1613585  46.7555412  12.4530447
  39.7073533  46.4490894  12.6211220  12.4001099  20.2057740  63.7410948
  12.8723464  20.9007213  64.2980426  12.0553880  19.6065213  64.4499221
  39.5037820  47.7905779   3.2554062  39.2693196  48.7209646   3.1044250
  40.4788484  47.8390894   3.2571639  36.8645718  64.3806577  10.7567413
  36.8997222  64.0027111  11.6796086  35.9711168  64.0864275  10.5281938
  37.7935433  56.9249302   3.2057387  37.1558373  57.5153822   3.5897078
  38.5847231  57.0116028   3.7623551  46.2207153  67.2190049  10.4280833
  45.6921774  67.2045268   9.5997323  45.8731421  68.0544945  10.8179706
  30.2196062  69.8483981  11.1831394  30.8098713  69.4245411  10.5491289
  30.4728693  70.8126734  10.9341263  20.8618028  53.8348861   0.1127787
  21.3733000  53.3612799   0.8080373  21.4941455  54.5526939  -0.0154510
  16.8382328  27.3576949  70.0212372  17.7915060  27.6231549  70.0480930
  16.4801226  27.9160868  70.7557222  40.8898277  68.8400807  20.4418520
  40.5784107  69.7645235  20.6196690  40.6137964  68.7439976  19.5078939
  48.5652945  58.3625743  10.6736129  49.1013769  58.9211946  11.2684631
  48.8238540  58.7590939   9.7926294  26.0254932  23.8202349  71.1157700
  26.8343353  23.3248674  71.3247106  26.5024597  24.6869015  70.8378864
  33.0309944  47.6129414   6.3297769  33.9376012  47.2580159   6.3945156
  32.5726435  46.8271086   5.9084093  39.5216415  42.7552614   6.1379849
  39.4797576  42.0031875   6.7566731  40.2480822  42.4131890   5.5241439
  34.2159819  46.3527083   3.8909136  33.9227768  47.2298202   3.7745179
  33.3673645  45.8432912   4.1658688  43.8959751  51.8494935  12.5000802
  43.3499656  52.6514950  12.1490383  44.6815527  51.9861455  11.9182187
  41.9843728  53.7809429   5.3837479  41.7055467  54.4906190   6.0122915
  42.6829433  54.2148518   4.8569341  15.5475834  28.8475063  71.8624775
  14.9512133  29.6274639  71.8073343  14.9714598  28.1563315  72.2168969
  35.7653372  60.9899525   9.7904922  35.2346585  61.7728278   9.4983298
  34.9920690  60.3888382   9.9344914  38.3519949  49.9209009  15.6398995
  37.8466157  49.1350562  15.4597499  39.2646442  49.5950526  15.2988277
  24.7160449  53.9669045   5.5096349  24.2723321  54.8289696   5.6200983
  24.7200742  53.6187111   6.4129141  26.2622445  56.2701763   9.9279391
  25.5868728  56.8576113   9.5264583  25.9597461  56.3933532  10.8736069
  48.4538118  57.5927249  15.3824574  48.4791852  56.7822147  14.8443465
  47.5702420  57.5613826  15.8041287  29.7041674  49.5568051  -4.6934055
  29.8141061  49.1067501  -3.8297452  29.2444221  48.8124985  -5.1522914
  10.3010778  31.8893401  59.8391269   9.8654995  32.7315061  59.6063422
  10.2788621  31.9100353  60.8007492  38.5672355  50.8805600  11.5915296
  39.0725300  51.0744276  12.4306606  37.6795830  50.7610455  11.8670982
  39.1373477  49.6568663  18.1277806  39.9589034  49.1832490  17.8774305
  38.6342988  49.5429521  17.2781835  16.2126735  25.3750144  68.3955196
  15.2363913  25.3165123  68.6631914  16.4693027  25.9787574  69.1919361
  43.2028221  51.6802689   6.7248093  42.7556631  52.2739112   6.0691646
  42.8286352  52.1103636   7.5436408  43.8219020  38.2885892   7.9068619
  44.2259883  39.1639375   7.7069305  44.0606490  38.2326049   8.8732935
  31.5926336  42.7774705   0.5000467  31.3112897  43.4808687  -0.0600208
  32.2339073  42.3253983  -0.1130464  24.1009317  21.3496448  70.1987048
  24.8086894  21.9971975  70.4604351  24.5656353  20.5057075  70.2675799
  49.1609203  49.2283690  10.4845883  49.8971326  49.8229907  10.1014740
  49.3565068  49.2644737  11.4106482  44.6979910  56.3769538  19.5512739
  45.1884856  56.7233908  20.3298679  45.1532620  55.5687037  19.3752870
  28.2620477  53.5177582  -4.2635803  27.7964989  52.7465887  -4.6778877
  27.4854403  53.9633852  -3.8162929  38.4961116  47.1609271  11.3307012
  37.8365305  47.6690126  11.8573070  38.7504765  47.9152907  10.7242204
  45.0114087  48.7969931  10.4114981  45.1457460  49.4893555   9.7708726
  44.3952480  48.2217994   9.9255656  34.3375761  50.0803718   8.5663916
  34.6078015  49.3083857   9.1611330  33.3922458  50.1097153   8.8580321
  38.4154695  57.7016567   7.3997038  38.8911759  57.4683171   8.2266645
  38.5142686  58.6670965   7.3302215  40.8059024  45.6673707   9.7875119
  40.4365459  45.5086079   8.8910894  39.9390192  45.9016952  10.2239023
  23.7806678  57.5516401   9.4962357  23.2798891  58.0110270  10.1757623
  23.2216174  57.9105506   8.7343868  14.2608461  25.7952994  64.5241196
  13.8910312  26.1506102  65.3216700  14.3037974  26.6159015  63.9394067
  35.8451639  45.6495469  14.4985287  35.0569966  45.8035448  13.9395111
  36.0566208  44.7000958  14.3375474  46.9378461  54.4645632   5.6067783
  47.0934761  55.3905491   5.3485422  47.7610316  54.1120678   5.2393447
  49.2187535  54.0738929  17.0946617  49.0888513  54.4614502  16.1878934
  49.9943011  53.5203396  16.8874166  31.4180334  60.8790498   4.5684090
  30.6254209  60.9216485   5.1776010  31.8878852  60.0962169   4.8841775
  43.5386379  62.7671001   9.1811548  43.2024564  63.7010047   9.3511468
  44.2471495  63.0264571   8.5215223  16.4988639  14.9892400  64.3825909
  16.8822026  15.6107810  63.7093479  15.8046398  15.6149767  64.7785619
  32.6954442  41.9329691   3.6687232  32.8885521  40.9777262   3.3153150
  33.6051290  42.1231091   3.9783176  36.8157022  73.7010518  11.1327644
  37.5552362  73.2028137  10.7134283  37.3147035  74.1507767  11.8015009
  33.8950448  58.1466155  10.2084552  33.9085209  57.1578791  10.1872670
  33.1072406  58.3211997   9.6396095  49.2630606  67.6483335  12.0338125
  48.9528464  66.8056415  11.6783363  48.5567920  67.7708573  12.7424046
  27.5995103  32.8936963  77.5933545  27.6873203  33.7505933  78.0928441
  27.5262056  32.2540045  78.3272569  44.6411950  69.2478805  13.2975997
  44.2013502  68.8312168  14.1100787  45.5815056  69.0810433  13.5947947
  39.9254143  71.1469670  21.2010478  40.0570931  71.6055785  22.0622235
  38.9537953  71.0748124  21.1979342  22.7449966  35.9772871  69.7965668
  23.2120727  35.1668958  69.9256873  22.4479420  35.9853473  68.8323060
  37.7659031  62.4733626  30.7626426  36.8154971  62.5995600  30.3580366
  38.0411343  61.7631022  30.1360020  37.2810014  75.1218246  15.4711880
  37.8962058  75.8003273  15.8147743  37.6302627  74.9893289  14.5478881
  50.4310083  69.3535601  23.9398480  49.6156426  69.1171984  23.3844336
  51.0696954  69.4827667  23.2732976  47.7826873  76.1688761  16.7152618
  47.4431261  76.1467743  17.5705540  47.2585707  76.8711858  16.2488320
  20.4446869  41.9565225  77.8402864  20.8086082  42.4915644  77.1024199
  19.5530042  41.7913808  77.5401331  34.0118763  28.8702860  69.1731947
  33.9884214  27.9828915  68.8497447  34.7709503  28.7910395  69.8159061
  31.5523335  68.6273953  21.3044615  30.6934420  68.8419849  20.7870016
  31.2137467  67.6610640  21.5414985  36.7472316  78.6336644  13.7894768
  37.5069443  79.2668664  13.8482606  37.1899828  77.9418447  13.2582832
  37.1362338  67.0062584  25.1696116  37.5342112  66.6553803  26.0147927
  37.8021392  66.6539456  24.5293730  36.0300936  70.6901849  16.2350668
  35.3667409  69.9659056  15.9852657  35.4662041  71.4417414  15.9492771
  50.6398767  58.3600812  29.8831613  51.0513882  59.2456740  29.9345612
  51.3410857  57.8221655  30.2340722  50.7403669  66.1859782  23.2949037
  50.3643732  67.0046938  22.9348212  50.8050417  65.6318146  22.4291010
  48.4844387  67.6378120  17.1274941  48.6064882  66.7644520  16.6714497
  47.7066406  67.4542432  17.6888833  54.4484440  52.3946043  23.7930640
  54.5210679  53.0252030  23.0437055  53.4555980  52.3365334  23.8707761
  50.9394377  57.8786210  16.6446325  50.0902929  57.9970652  16.2107470
  51.1219131  56.9578418  16.2925397  39.5901640  73.5465943  23.1529436
  39.4080453  73.7905044  22.2144178  38.7167101  73.1084878  23.3784749
  56.2555468  74.3793773  25.0455399  56.6675536  75.2425240  25.4162684
  56.4172576  74.7364136  24.0956497  47.3953307  68.7255582  14.4961831
  47.6948860  68.2506898  15.3067219  47.9802518  69.5189712  14.6262948
  45.2413617  55.1399251  14.0609685  46.1876626  55.2551438  14.3293990
  45.0968350  54.1833921  14.1091005  48.4089078  61.7200025  20.2238083
  48.4737361  60.7583141  20.1170120  49.3712030  61.9304306  20.2853868
  51.6880614   6.6766828  11.2530164  51.2417406   6.9662990  10.4141472
  51.2885935   5.8266159  11.3539893  38.2047618  70.1267969   8.4852382
  37.6812648  70.6074247   7.7923303  38.4423524  70.8302245   9.0679671
  43.7986620  68.8233321  25.0568675  44.6098062  68.8461817  25.5330875
  43.2053287  68.4517612  25.7416630  36.2884343  62.3046606  12.7266640
  35.4730381  62.1103923  12.3046024  36.4037796  61.4591738  13.2414190
  45.9466376  80.4243460  25.5585204  45.8668729  81.3869995  25.3091770
  45.3979385  80.5045048  26.3649759  27.0304855  65.0801321  11.9063335
  26.4513415  65.4929524  12.6347868  27.1459421  64.1965444  12.3046601
  47.1026360  75.6028103  22.2334521  46.4103431  74.8921142  22.3700173
  47.8800327  75.0008238  22.4397360  39.1698177  60.9752421  13.3660817
  38.3918814  60.4360770  13.5791461  39.2278172  61.6529573  14.0354591
  12.7121972  37.6276393  69.7422694  11.8287545  37.3461060  69.4845816
  13.2263751  37.6148906  68.9226195  69.7624435  42.9209682  69.6979790
  70.7125246  42.9789099  69.8054513  69.5254216  43.8069546  69.3694573
  42.4922043  73.6770176  16.4196956  43.4133552  73.4312288  16.7272328
  42.1361648  74.0652576  17.1958156  58.3674871  71.8659533  20.6745095
  57.8702477  71.6672311  21.5052793  59.0127339  72.5167572  21.0115021
  40.6359976  73.1504696  31.1310887  41.2394118  73.9804617  30.9560724
  39.9782557  73.2984764  30.4492062  69.4609739   9.0157320  24.9615395
  69.1801077   9.4709352  24.1562065  68.9758168   9.5329006  25.6476432
  36.1934002  72.2652805  30.4585537  36.1706753  71.9927754  29.5152273
  37.1301435  72.3851180  30.5957621  43.7001214  58.4317086  22.8826547
  44.4430167  57.9101225  22.5366891  44.2520068  59.2060626  23.2623175
   8.9643472  32.8314837  64.7005279   9.2190790  33.2388151  65.5674507
   8.4258027  33.5002511  64.3254454  27.0014863  31.6889592  63.8861680
  25.9991466  31.5446193  63.9053905  27.2000324  31.1617852  64.7307154
  51.1214138  59.3402303  11.8294687  51.6085387  58.7198801  12.4224098
  51.8113690  59.5115310  11.1624937  42.8934465  56.6072709  17.5613538
  43.5419045  56.7803800  18.3341365  42.8708960  57.5250892  17.1792185
  18.6480743  42.2613937  63.5869154  19.2257120  42.8977725  64.0673825
  17.8522950  42.3180972  64.1697166  40.4131672  64.6575645  11.9327914
  40.1250024  64.4137530  11.0517471  41.1060951  65.2997121  11.8029426
  30.7026993  47.1614079  82.1852850  30.8186816  48.0140467  81.7428699
  30.4189775  47.3856009  83.0560747  37.5159401  64.7834588   6.5956531
  37.2020043  65.4443192   7.2781063  38.4165541  64.6730608   7.0411502
  49.2043306  70.9925185  15.0075282  49.8455392  71.6632358  14.5439360
  48.4933815  71.5662204  15.2090949  25.5443113  19.1633149  66.3575098
  25.2611068  19.1219035  65.4610130  24.8206570  19.5955360  66.8023031
  45.7149887  60.4343169  14.8870784  46.6949937  60.6586009  14.8682686
  45.7070423  60.0038005  13.9773464  40.3516261  61.5182833  10.9986373
  39.6678189  61.6231349  10.3360183  39.7586040  61.3374888  11.7823724
  40.6738301  69.4092530  14.8018635  41.0412045  69.1737030  13.9311981
  41.4634157  69.9940032  15.0748030  34.7264510  54.0655339   6.2490620
  35.5169786  54.4493006   6.6541233  34.7608545  53.1841631   6.7540606
  52.3897196  74.0195893  29.8992638  53.3474294  73.8581753  30.0273866
  52.3561845  74.9893901  29.7354814  46.9467080  83.0262516  20.2611970
  47.4359102  82.2104366  20.3813997  47.6541098  83.7224826  20.4846352
  27.1609069  30.8364556  69.8068211  27.6025747  31.4148707  70.4650453
  28.0364095  30.4461511  69.3773434  55.0930111  10.6239082  13.4188202
  54.7195501  10.1694210  12.6624806  54.7937097   9.9040106  14.1228291
  43.4797874  70.7426809  20.8275616  43.0895506  71.6114629  20.6804981
  43.0826126  70.1579335  20.2324698  22.0189623  24.2711314  69.9889335
  22.6007806  24.2719686  70.7590454  22.5665291  24.7127199  69.3067092
  47.8126298  72.9784543  16.3522708  48.5471146  73.1764059  16.9713802
  48.0123490  73.6333255  15.6464853  50.4478638  64.4065106  13.8605527
  50.5560550  63.6859831  13.1965596  50.9869607  64.0259369  14.5714225
  23.9135859  33.6622299  71.0198488  23.3194185  34.1030646  71.6164845
  23.5352633  32.7485360  71.1586080  38.2161857  59.0543493  30.9262501
  38.8772519  59.6209111  30.5252621  38.6515597  58.1632138  30.7093241
  34.4865621  69.6029051  31.6918556  35.4003534  69.8032139  31.4117655
  34.1238157  70.5353314  31.7624050  38.2183812  63.1663106  20.5851861
  38.6413137  62.3354429  20.8918870  37.3748183  63.1964487  21.1163084
  39.4256282  73.6508438  27.1238353  39.2474117  72.7308431  26.8970141
  39.8172754  74.0168040  26.3287447  51.5936884  73.1203308  22.0452508
  51.6656638  72.1231476  21.9775152  52.3856713  73.3754429  21.4967183
  33.1372392  68.9310579  18.1060868  32.2299291  68.5694570  18.2061848
  33.6130765  68.4016340  18.7860653  36.5254504  74.7055875  19.6883806
  36.0672736  73.8530665  19.6853447  36.1995454  75.0021662  18.7480657
  51.2786263  75.2242315  26.4178870  50.7739062  74.8459880  27.1652090
  50.5121657  75.7796846  26.0581872  46.0393503  57.2883991  21.7729999
  46.6891987  56.7005410  22.1825353  46.4784590  58.1073506  21.7947499
  16.9892451  37.6399634  77.3555287  17.5450539  37.3727548  76.5604601
  17.5627570  37.2108103  78.0769680  19.1030209  39.8811130  75.4687547
  19.0741760  39.8261514  74.4896814  19.9789917  40.3338963  75.5690987
  33.0319643  36.7806110  78.2059211  33.4889973  36.1884599  77.5607866
  33.1346641  36.2880991  79.0206173  41.7289453  75.5593814  18.2530192
  42.5255524  76.0088915  17.9056517  41.3021291  76.2716423  18.7171581
  51.4348855  67.0873454  13.3645825  51.0223382  67.3814145  14.2125329
  50.7050532  67.0220209  12.7568293  35.7089360  24.0760950  74.0516609
  36.0205601  23.8004973  74.9454004  35.4274649  23.2170519  73.7187592
  42.9099831  71.0162731  15.1310586  42.9472081  71.9196847  15.2475631
  43.0630951  70.8780898  14.1680083  18.4673847  32.4931177  74.6538239
  17.7237415  32.3268464  73.9879788  19.1792573  32.5708673  73.9556474
  48.7538310  61.6646452  23.5891429  47.8759914  61.9957152  23.7073357
  49.2684423  62.2412116  24.2676842  37.9731546  70.4862820  17.9965621
  38.3960996  71.3753698  17.9313387  37.2839107  70.5936497  17.2810417
  40.0449546  57.5140092  13.0888100  41.0458830  57.5281460  13.0289279
  39.7999570  58.3642148  13.3902561  26.6567041  32.5423050  74.9769933
  25.7541225  32.1935018  75.1603877  26.9835597  32.7455416  75.8775515
  30.0967568  35.7222266  78.6062911  30.8720324  35.1316436  78.4113699
  30.4707736  36.1744967  79.3981905  70.8261654  31.5380265  64.6029803
  71.6758349  31.9956882  64.3165013  70.2101327  31.9221165  63.9876271
  25.4533730  39.3910199  76.0843457  25.7626622  38.7078826  75.4610667
  25.0456023  40.0532092  75.5194056  32.3967157  60.5392216  15.1876528
  32.8231339  60.1708472  14.3584420  33.1172256  60.1560748  15.8021198
  25.3742689  38.5670257  80.6305055  25.5443840  37.6393496  80.4699175
  24.8787799  38.7760045  79.7624040  29.3663631  65.5721592   4.4020765
  29.1864450  66.3898305   3.8506549  30.3518714  65.6753472   4.4662612
  47.1363778  70.8566466  19.1624857  46.2905438  70.3988738  18.9305627
  46.8650372  71.7792211  19.0616952  45.5770840  76.5615092  19.5426963
  46.3548387  77.1619930  19.5191559  44.9816482  77.2043122  20.0098073
  33.5663878  66.4655989  10.2533176  33.3577193  66.6471600  11.1944294
  34.4590989  66.9326009  10.2464139  51.3375010  52.5689823  14.8454045
  50.6604392  51.8922935  14.8616076  51.5804750  52.5742329  13.8760497
  49.1429712  60.6639263  17.3584024  49.9457318  60.1350461  17.6215394
  48.4555530  60.1042318  17.8650995  21.3225723  21.4575473  70.1409368
  21.1386987  22.3905016  70.2994818  22.2821106  21.4587349  70.2930483
  38.6293462  53.6750067  10.9828637  39.0421727  54.1883682  11.7238610
  39.0855436  52.7900597  11.1260900  45.5685946  60.4693929  10.4196383
  44.6134407  60.5656362  10.2177094  45.7856466  59.8348227   9.7145003
  29.6134036  65.6481286  15.5763211  30.1947505  65.7536783  16.3817916
  28.8172849  66.0440146  15.9140460  13.6747945  31.1729303  72.2039531
  13.8336785  31.7816705  71.4279207  12.8582160  31.6022403  72.6071636
  24.0856194  37.7076174  73.5973551  24.4173188  38.0283202  72.7208296
  23.2907555  38.2862417  73.6654853  27.2696381  69.2752205  17.7456546
  27.4932340  70.1269826  17.3246967  27.5158983  69.4014061  18.6442073
  20.0811994  36.7567611  67.0494469  20.2269234  36.6929898  66.0854637
  20.3400630  37.7333383  67.1112256  45.4604332  50.7999132   8.5487266
  45.9518589  51.6277464   8.3455885  44.6824510  50.9472562   7.9984673
  24.2896969  56.5227101   6.6033857  24.4610157  56.2988867   7.5738347
  23.5899029  57.1486640   6.7709358  45.1052409  73.9393841  22.6761490
  45.4307285  73.0024662  22.7557339  44.2008349  73.8485119  22.9999817
  38.8989666  65.7534639  23.8097152  39.6847344  65.7690088  24.4725118
  39.3272307  65.2520741  23.0894251  58.2607135   6.4260956  11.9391290
  57.7813897   5.5823046  11.8333966  57.5938692   7.0492107  11.5063521
  14.8733905  40.8310234  60.8071592  14.9977588  39.8681034  60.5663603
  15.7733474  40.9766764  61.2126328  24.1651651  35.3353157  78.4506447
  24.2022404  36.3088847  78.2092365  25.1315852  35.1429584  78.4079527
  42.7755967  64.8397456  18.8746916  41.8839001  64.4754980  18.9349095
  42.6923070  65.6415296  18.3562982  34.4154827  34.4390120  82.4558102
  34.5758610  33.8275334  83.2523175  34.4196081  35.2246058  83.0186575
  36.1748856  68.0890449  18.7940198  36.5543371  67.7943683  19.6619969
  36.5507138  68.9383938  18.6496726  32.5102426  41.0484218  83.8107039
  32.1474576  40.4055561  83.1134399  32.0235893  41.8546316  83.5541793
  50.7515499  73.7361112  17.3323975  51.3844452  73.4795123  16.5958832
  50.7684366  72.8356123  17.7622574  43.5108409  67.9988422  18.3774528
  43.4802565  67.7884504  19.3061636  43.1113007  68.8803355  18.3038361
  46.2453324  62.5733499  23.5182510  45.9124895  63.1160212  24.2950812
  45.3761819  62.0214546  23.4646766  48.9965602  59.6129204   8.3207547
  49.5868883  60.3540173   8.0597355  48.1157352  59.9689469   8.1220811
  45.4994558  46.6463858  12.3313310  44.6100649  46.3516085  11.9354672
  45.6207645  47.5144049  11.9125259  25.5822000  23.7952791  63.4218688
  25.8906377  23.3179262  64.2512233  26.4264798  23.6325402  62.9074554
  45.8302556  58.4085044  16.6923729  44.9333084  58.1597963  16.4379610
  46.0021581  59.2340081  16.1914076  33.0999818  31.2240522  74.4399517
  33.2509383  31.5644778  75.3856961  32.3180527  31.8042011  74.2221072
  23.2349833  20.3645990  67.7280694  23.5065382  20.8909535  68.5345777
  22.3684403  20.7529650  67.5851679  29.6370384  23.4557493  68.9653340
  30.0064804  24.1769068  68.4304989  30.0741569  22.6804101  68.5112246
  32.7700915  28.7131390  74.8604811  33.6713735  28.3771624  74.9605656
  33.0456782  29.6902411  74.7234594  26.7416747  37.4522852  74.9358397
  27.4999576  36.8395626  74.9861142  26.1485343  37.0294635  74.3190064
  50.1067361  65.2751869  18.0760374  50.6674034  64.6268492  17.6018290
  49.2106817  65.0356602  17.8302388  24.3575804  27.3010004  69.4652064
  24.5553059  28.0138770  70.0605310  25.1788491  27.3749711  68.8753253
  13.8560713  36.5391462  71.8561219  14.5182612  36.5549075  71.0481899
  13.0679415  36.7927003  71.3145317  38.6198036  67.8336368  14.1256129
  38.5037458  68.2645305  13.2672393  39.2078332  68.4390569  14.5792374
  40.2798355  54.8764175  12.8341372  40.2543966  54.6697816  13.8027507
  40.3013403  55.8246827  12.8441909  52.0142478  59.3699372  32.3611228
  52.2897758  58.4606158  32.3573249  51.5812674  59.4348314  33.2329407
  38.5107580  68.9756444  11.0143288  38.2756338  69.0864013  10.0309792
  37.7666063  69.4383121  11.4262146  26.8027089  27.7316806  68.4264381
  26.6266603  27.7231140  67.4673606  27.5118875  28.4174973  68.4830761
  30.7054093  62.7350590  15.4976679  31.4114726  62.0775322  15.4861629
  30.8979258  63.1080111  14.5849022  48.6565337  57.1289630  28.3118903
  49.1855114  57.7319756  28.8818337  48.9568579  56.2515300  28.5600841
  29.5428358  65.8799872  10.9248135  28.7385156  65.4396420  11.1599919
  29.8678789  66.1997405  11.8056434  29.9791321  69.6806206  23.7675736
  29.8746771  69.1566694  22.9657306  30.9165469  69.9728802  23.7538633
  50.7964238  75.5021364  20.0406919  50.8084209  75.1588652  19.1436242
  50.9467715  74.7572270  20.5882994  31.5403168  29.9157799  69.7636957
  32.3949406  30.0276385  69.2612186  31.7965363  29.1354783  70.3189867
  23.1304202  26.8210659  73.6108462  22.2977512  26.9328878  74.1145983
  23.1133392  27.5760281  72.9917557  55.9999602  53.4050257  14.5121251
  55.3721156  54.1498236  14.5153504  55.4034337  52.6665276  14.1732363
  33.1622926  73.7954294  20.5111214  33.6654428  73.1608541  19.9445967
  33.6845003  73.6657826  21.3335188  43.2854060  78.4407878  25.2526063
  42.8619774  77.8480484  25.9598612  44.0423469  77.9208342  24.9971977
  33.2127080  61.2261575  21.0230605  33.1441661  61.9890496  21.6571497
  32.6123872  60.5649168  21.4576143  55.7946040  73.1803162  20.8453668
  55.0170965  73.7392602  20.8416924  55.4630100  72.3047868  20.8503360
  39.5739339  56.9044270   5.2907889  39.2060226  57.3252973   6.1058885
  40.1023747  56.1961541   5.7475385  38.7075956  74.3417556  13.0257283
  38.4004141  73.4376392  13.3267913  39.6803866  74.2247746  13.1972776
  58.2828625  23.4385208  13.5469092  58.0276354  24.4241228  13.5783001
  57.4635170  23.1290066  13.1207013  39.1439335  43.9127394  14.2972943
  39.8245978  44.0961978  13.5597532  39.3477283  44.7236375  14.8230910
  50.5525803  79.7807008  28.5734246  50.3592675  79.9496329  27.5787984
  49.8034333  79.1799823  28.7370992  41.1468205  81.8458461  24.3057598
  41.2474022  80.8544747  24.2501554  41.7054641  81.9947317  25.0978834
  28.1288439  36.4040007  72.1210538  27.4622348  35.8568416  72.6062375
  28.4609421  35.7089650  71.5272923  51.1914059  85.0507722  23.8372241
  50.4176136  84.8156604  23.3010079  51.8303695  85.2995275  23.1709575
  35.5732508  62.8509408  16.5994455  35.7902482  62.4587798  17.4517415
  34.7032808  62.4020537  16.4625533  48.1400255  80.1430563  22.6763851
  47.9489710  80.1365512  21.7445576  48.4400378  79.2885151  22.8988594
  53.0025630  67.9347667  21.2369560  53.4536760  67.0912146  21.4712180
  52.4699921  67.6347029  20.4433509  20.3195724  46.0832896  61.7328605
  21.0762496  46.4833633  62.2254511  19.6248839  46.6765124  62.0333367
   0.7294493  14.7065721  25.6322322   0.2581918  13.9017116  25.3007984
   1.1548443  14.3504179  26.4602982  61.2779826  62.5540815  16.8374752
  60.8532894  63.2331887  17.3933071  60.6321770  61.8889467  16.7097052
  28.9044077  31.5781909  74.0678214  28.8402138  30.5994330  74.2799898
  28.0345565  31.8955534  74.2435702  47.0720279  70.9925694  22.6838228
  46.8044641  71.1343083  23.6183011  47.6001658  71.7492319  22.5140422
  23.7239450  44.3944210  79.0979306  24.3649982  45.0846561  78.9992239
  24.2238933  43.6512607  78.6632279  58.5763118  71.1078930  23.8109926
  57.6839415  70.6673874  23.7868451  59.1264748  70.2650619  23.6110853
  56.1223341  69.5791663  24.2959814  55.5432759  70.3486180  24.5055715
  55.4843227  68.8382548  24.5113995  45.2857516  78.8643364  30.1245744
  44.7084515  79.6322033  30.3847101  44.6141794  78.1809143  30.3508911
  78.1257886  19.2631832  32.1337774  77.6070959  18.4304805  32.3244963
  77.7492840  19.8273036  32.8165874  56.9436338  67.9830469  19.7256523
  57.0301974  67.8221059  20.6937323  56.7101733  67.0977856  19.4186425
  49.8623688  80.5426042  25.9589031  50.0851255  81.5169837  25.7959777
  50.1065965  80.1585162  25.1000260  62.3826792  59.2305177  65.3135394
  62.3871257  60.1746398  65.4983064  63.2491394  59.2297258  64.7810847
  42.1862186  24.6419430  10.6960208  42.3823625  23.7321244  10.3590719
  41.8212356  25.0532905   9.8704084  20.5046445  29.1961105  16.0983780
  19.8839999  28.8077432  15.4937883  20.3382521  28.7739088  16.9377629
  21.1158885  23.0524825  19.6877666  21.3122062  23.4664724  20.5633914
  20.1037180  23.1013789  19.7456356  62.9892758  59.0278194  57.5565679
  62.5909971  58.3822803  56.9081316  62.6252195  58.7801344  58.4252137
  35.7692395  14.0178558   8.3348853  35.8705487  14.8129408   7.8025118
  36.4038177  13.4023695   8.0441179  68.8167563  54.7759825  59.6679428
  69.0281509  55.7470057  59.7518638  69.7289903  54.4446729  59.9079614
  52.8298759  65.1747476  65.4829374  53.1054275  64.5366519  66.1869686
  52.5609042  65.9608860  66.0189913  58.5883078  49.8512556  60.9153054
  59.3780434  49.7370792  61.4760513  58.0005599  50.2110333  61.5903967
  24.3867310  27.4639617   8.8141750  25.1424133  28.1521921   8.5965384
  23.8764324  27.9392827   9.4873636  60.7938932  66.7946349  50.5057893
  59.9235428  67.1926928  50.5394131  60.6153195  66.0868247  49.8130165
  29.1201337  21.1699997  14.6634326  29.5957010  20.6984915  13.9154896
  28.2143110  21.1529090  14.3388649  53.0819458  62.8813956  60.5329873
  53.3186643  62.1800673  59.8560879  52.1841026  62.5733636  60.7284510
  56.9370984  58.8466668  69.6290338  56.1665253  59.2071793  69.1809808
  57.6619944  59.0496277  68.9780236  64.0197037  50.9363644  66.4123936
  63.3596541  51.1610482  67.0698799  63.8448431  50.0074711  66.1559325
  39.3050534  15.1333996   8.1911999  39.8915798  15.1164504   7.4055641
  39.1077845  14.1544922   8.2515038  64.3080842  54.1771360  65.2219119
  65.2584793  54.3372079  65.5344246  64.4570883  53.4881283  64.5762534
  30.4153654  20.4836979  12.4326777  29.7424307  20.3697674  11.7180780
  30.4910497  19.5153514  12.6485730  47.0505094  43.1250232  70.7832461
  47.2106264  42.2057323  70.4572600  46.6883767  43.5306651  69.9325052
  35.1741875  30.4404057  -0.0845978  35.5911094  30.0963727  -0.8825782
  34.7716933  29.5223650   0.1228258  65.8327969  60.6950004  62.4724868
  66.7826614  60.8513092  62.5204485  65.7189312  60.5242961  61.5240429
  17.1713299  25.3143737  11.9176828  17.1918786  24.5302597  12.4668447
  18.1004766  25.2337001  11.5743872  28.3754233  26.4640091   4.6453192
  28.6803427  25.6403946   5.0869250  29.2562143  26.9152077   4.5933478
  30.3105453  34.6220431   9.0548159  29.8936885  34.4733101   8.2197614
  30.0475771  35.5351632   9.3017045  31.6336248  35.4950589   2.8118329
  31.8252889  34.5810812   3.2332853  31.2529409  35.0564799   2.0041860
  13.4967869  12.6445888  55.4335477  13.8291136  13.0394486  54.5906018
  14.2661027  12.2075594  55.8036797  29.6646637  46.9396632   5.3315671
  29.3909499  47.2342069   6.2560620  29.7736665  45.9664574   5.5483329
  18.8362659  27.4621670   8.3802117  18.8653763  28.0345494   9.1971047
  19.7649928  27.4607687   8.1639760  56.6009281  62.0475084  64.0982816
  57.1503583  61.3047029  64.4650291  57.1016627  62.1895779  63.2681207
  68.9776395  54.4232953  64.0003324  69.7588603  55.0906831  64.0792898
  68.2593027  55.1089130  64.0134876  67.1873849  56.2877185  63.3007107
  67.9710491  56.7773097  62.8640207  66.5110759  56.4653542  62.5734202
  57.5572618  71.2306799  62.6716874  58.5147006  71.3646111  62.9212006
  57.6289349  70.6040182  61.9273108  62.7220245  62.0257295  65.4955500
  62.8619144  62.3369249  64.5975930  63.4900081  62.5198194  65.9526246
  33.4019061  32.0400538   7.9361447  33.3041905  32.8122474   8.6188239
  32.3620494  31.8436942   7.9244466  41.5461224  33.5055043   1.0879189
  41.3694494  32.8435859   0.3959001  40.6647538  33.6828304   1.4291194
  51.6749117  59.2718616  57.5498335  51.2382845  58.8868671  58.3656520
  52.1906374  59.9755258  57.9263501  36.3026066  33.4631361  -2.6581163
  36.6464508  33.6986033  -1.7554260  37.0424463  33.6082160  -3.2000523
  14.5438598  18.1014036  52.0174363  14.9614933  17.5505998  52.6954451
  14.1117956  18.8176891  52.5592848  31.3080455  26.6439192  16.9818048
  30.5109404  26.3174909  16.5332705  31.6669747  27.1599640  16.2218369
  38.5012408  28.5827147   6.5286762  37.8528524  27.8868009   6.3843599
  39.3004873  28.0398322   6.4950738  29.0883297  23.1794595  10.7253857
  29.8704140  23.4866551  11.2654105  28.9771210  23.8987124  10.0971994
  36.8802588  23.8344100   6.2219205  36.5909725  24.7586930   6.4604069
  36.3287897  23.3385083   6.8492126  30.3720540  27.4401687  10.5280592
  30.5163168  27.2825613   9.6099134  29.5491454  27.9639661  10.4948954
  12.9278632   4.9518052  56.9938594  12.0940238   5.1669835  56.5558195
  12.8925860   5.5202617  57.8325010  56.4336958  70.5628196  53.3024723
  56.2876366  70.7620695  52.3906881  57.1612018  69.8283131  53.1984540
  37.8662133  22.5429206   9.9073660  36.9221738  22.4678224  10.2851329
  37.8411067  23.5103623   9.6734304  35.1246076  20.2150131   7.6654126
  36.0102856  19.8139286   7.3921247  34.6521570  20.0544453   6.8236683
  32.7271516  29.0732256   4.7939164  32.7044443  29.6868949   4.0046715
  31.9555879  28.5037989   4.5623329  62.7560168  65.1809037  58.0373182
  63.6223670  65.4369905  57.5621764  62.2569577  64.7828148  57.2872673
  52.5957807  67.9500555  64.0906454  52.1137501  68.6690712  64.5421305
  52.7894378  67.3461690  64.8521004  27.8212967  28.5922744  11.1967010
  27.8446039  29.0798574  10.3820675  26.9737773  28.9549583  11.6338775
  43.9432140  31.9501698  -3.8625273  44.5193338  32.4079646  -4.5232154
  43.2746119  31.6111825  -4.5423805  28.4693387  36.2601659   5.2889805
  28.6551774  36.6092488   4.4101530  28.2910592  37.1176289   5.7432212
  38.1547695  34.0284817  -4.5328401  39.0042786  34.1789744  -4.0748648
  37.9398354  34.9312838  -4.8263610  52.1448335  35.3898942  -3.6594560
  51.4897625  35.3169545  -2.9695155  52.6760268  34.5769218  -3.5303450
  47.9318094  32.7149275   0.4749170  48.1140927  33.6260970   0.7510107
  47.2090710  32.8111088  -0.1092282  36.6762308  29.0878005  18.9915815
  36.9796881  28.4656081  19.6662209  35.6868427  28.9930044  19.0781902
  35.0849126  33.4612167   0.0185766  35.0235569  33.2346692   1.0134796
  34.9382680  32.5912132  -0.3369518  38.0470364  32.8857917   3.3123476
  38.0911172  33.7215907   3.7780097  37.9909029  32.2704690   4.0367257
  22.2603818  26.5545108  13.4630136  21.5064798  25.9291405  13.7147395
  22.0275408  26.7330230  12.5314272  25.8048939  42.3491628  -1.0044960
  24.8731449  42.5708679  -0.7069615  25.7012212  42.4854638  -1.9381688
  37.9895021  35.8774346   4.8391248  37.4210937  36.0763100   5.6115926
  37.3070054  35.9325166   4.1344828  43.4520431  20.8455300   3.0303405
  43.4899575  21.5039902   3.7383093  44.2141744  20.2602580   3.3060943
  40.9613179  14.7478683   6.2575396  40.5939648  14.5484380   5.3551600
  41.3218892  13.8703507   6.5391084  69.3561824  67.0856945  55.1583851
  70.0547137  66.7466211  54.5582356  69.7889348  67.8793551  55.5440033
  60.5111402  55.9092930  59.8511440  61.2664511  55.6728788  59.2481784
  60.1053527  54.9757948  59.9345735  40.3789158  38.3315861   0.8786809
  39.4960294  38.6481749   0.5806069  40.2677217  38.3404964   1.8308428
  70.4334869  68.3211737  51.7506524  69.8067997  68.9423059  51.3145938
  70.4278974  68.6380332  52.6325919  11.1818618   6.3097017  51.6717709
  10.7362090   6.3041520  50.7877556  10.6632320   5.5884877  52.1156545
  53.7949413  59.2549751  59.9710527  54.4074667  58.5336411  59.7756074
  53.2328995  58.8700018  60.6721390  68.6646010  47.5015530  69.0830526
  67.9941626  46.9595698  69.5827740  68.0289430  47.8217828  68.3929599
  43.5495396  33.8619981  -1.6084726  43.1189814  33.2505973  -2.1592173
  44.4665843  33.4542644  -1.6010933  56.2798078  48.0409330  66.0096430
  56.6262277  47.1100607  65.9178397  55.7085884  48.0185338  65.1838293
  33.1070502  34.2373115   9.7272973  32.2813564  34.6002016   9.3920301
  33.6618171  35.0527358   9.7436625  70.7101051  56.5305338  64.4020916
  71.6101896  56.7239810  64.0180651  70.1269230  56.8932729  63.6602898
  66.7046109  58.9515176  66.0712446  67.2129362  58.1427108  65.8683672
  65.9688637  58.8242216  65.4728213  30.5937737  31.8017514   7.9538315
  30.1474377  31.9464301   7.1261686  30.5384216  32.6724678   8.3405612
  46.2280453  36.0604105  -7.4380248  46.2798539  35.0885535  -7.1753911
  47.0812857  36.3818918  -7.0372005  56.4630049  58.2953321  62.6898045
  57.3933302  58.0289581  62.4451718  56.6172966  58.9646079  63.3501062
  59.6453185  38.0847014   7.9063707  60.5354193  38.1934578   7.4754488
  59.9130364  38.3898743   8.8336019  39.6619921  39.7972805  -5.1960152
  38.7622466  39.6563473  -5.4323259  39.5576483  40.1679906  -4.3090470
  36.1384596  36.4008677   3.0355772  35.1281392  36.5281025   2.8216520
  36.3742283  36.1031771   2.0965299  42.6140275  23.3560642   0.5061990
  41.7903082  23.3470097   1.0123853  42.7738545  24.3228997   0.5294041
  53.9993425  31.5829961   6.2818659  54.9841000  31.5589981   6.3814823
  53.8663467  32.3724907   6.8619101  60.6152520  56.6432513  70.2614175
  60.7405561  56.3669436  69.3448470  59.8078733  56.1668096  70.5131523
  31.9854307  27.5777512  14.5511291  32.0569919  26.9359265  13.8306756
  31.3656139  28.2147786  14.1558420  22.4230247  40.7536302   0.8346340
  21.7690625  41.5197520   0.8925993  22.7280338  40.6465968   1.7591249
  34.3636389  50.9735924  -2.7878998  34.9807396  51.6936684  -3.0426799
  34.5009085  50.3499750  -3.5063472  57.8904637  69.5783822  60.4890760
  57.2971431  68.8496753  60.5301496  57.8937546  69.7720804  59.4839527
  30.4136281  33.1881121  11.4386172  30.9942540  33.6584131  12.0520920
  30.7652392  33.4473727  10.5897990  60.6524016  64.7335806  55.7289651
  59.8955137  64.5026686  55.1757064  60.7909316  65.6994804  55.5355916
  38.9287545  35.3949578  -0.6038321  38.0039457  35.6187592  -0.2339242
  38.9875121  34.5175885  -0.0951187  27.5986460  37.2883050  -0.6626511
  26.9438360  37.5583421   0.0388874  27.5222035  37.9655317  -1.3229107
  35.7880815  42.2962620   2.0874746  35.7736519  42.3101284   3.0425892
  35.5470870  43.2348500   1.8717961  54.0996142  65.6067686  63.1225002
  54.0048096  66.5550793  63.3123297  53.7898276  65.1778135  63.9452851
  35.1021917  47.6286645  10.2005060  35.8337331  47.8719269  10.7737668
  34.6222912  47.0363682  10.8789744  66.1210935  72.7176675  57.6921142
  66.5864420  73.4950434  58.0003069  66.0921384  72.1724904  58.5018368
  56.9919191  16.7952107   6.7678099  57.2386285  17.6267931   6.3633845
  57.4411825  16.8123680   7.6078184  41.5177978  50.1100002  -1.6944800
  41.2818380  50.0588763  -0.7673692  42.1033935  50.9047645  -1.7182075
  57.5412712  59.1727386  59.6785579  57.8663150  59.8562573  59.0481645
  57.8172793  59.5306964  60.5453569  62.3425414  56.2377074  62.0516712
  61.5600595  56.0626037  61.5037989  62.0203523  56.0558034  62.9656088
  29.6298909  45.6299827  -4.3135564  30.4669580  45.9451581  -3.8579582
  29.9479635  45.1406972  -5.0904489  44.2881837  28.0776479  -1.0488412
  44.9656289  27.7810002  -0.5070824  44.7243742  28.7559039  -1.6305277
  75.3490412  51.2475183  65.1625772  75.1963625  50.3712695  65.4982704
  74.7110996  51.2798218  64.3997087  55.0722803  71.1673104  64.0201633
  55.8676712  71.0928054  63.4898974  54.3772140  71.0609108  63.3705627
  35.6349399  43.0670582  -2.4247854  35.6428923  44.0088341  -2.2232093
  36.1958293  42.9262819  -3.2009047  51.4180914  74.3447066  63.1331358
  50.4565721  74.1921730  63.1322386  51.5479868  75.0050366  62.4732386
  28.2427756  38.5465329   6.6509761  28.8035621  39.1728173   7.2197548
  28.2543577  39.0313909   5.8076368  25.1634001  29.3253791  11.7147776
  24.5421062  28.7757024  11.1666092  24.7828138  30.2206781  11.5764402
  65.7938424  76.3850267  51.8819391  66.3192437  76.3931722  52.6854545
  65.7451332  77.3146373  51.6662491  29.5354805  37.4061284   3.1819971
  30.4545059  36.9163518   3.3114217  29.9734231  38.2160409   2.8187440
  51.8890175  67.4487553  53.6154602  52.5807529  68.1212905  53.5313091
  51.2842018  67.6905841  52.9304441  33.3020316  25.6717428  12.5738552
  33.0741438  24.9481170  13.2509573  34.2236679  25.8207486  12.8495476
  32.7940151  26.7131690   8.3058371  32.8398581  25.8268060   8.6438478
  31.8741408  26.7441772   7.9674334  41.2799830  37.5336047  -5.4378661
  40.7543783  38.3687232  -5.2457045  41.5039340  37.2795137  -4.5608984
  47.0176363  35.7144515   7.7750594  46.2289296  35.5097171   7.1883189
  46.4592914  35.8894001   8.5526000  62.0920694  67.0705979  62.4358406
  61.7457259  67.8674602  62.0238549  62.7591881  66.7892908  61.7516869
  42.6793249  26.1271506  -1.0291145  43.2444426  26.8719384  -1.2346272
  42.1072305  26.4363618  -0.3534532  54.5599509  60.0442859  65.3323448
  53.6766303  60.3587685  65.1378937  55.0568896  60.4287021  64.5910267
  58.5993341  51.9802481  65.5121280  59.3428224  51.4646749  65.4804407
  58.7883994  52.7265579  64.8966213  32.6870508  24.2732548  14.8882364
  33.5063053  23.7975793  15.1734700  32.3584419  24.4763496  15.7986316
  54.0291741  50.7728681  66.0636658  53.9988165  51.3442504  65.2764781
  54.9237723  51.0663752  66.4223456  20.6582006  27.5095700  11.2617178
  19.8797915  28.0662269  11.3203915  20.2594208  26.5747948  11.2148791
  71.7753033  65.6626206  54.4221424  71.7013707  64.8351495  54.9334860
  72.2403954  65.3640947  53.6278635  41.6388578  76.2567660  53.0423178
  40.8798518  76.0983138  52.4618527  41.8272822  77.1970908  52.8558478
  73.5150998  70.1732183  47.8499016  73.5997089  69.8383920  48.7331218
  72.7172991  70.7137360  47.9118487  38.8326935  41.3953058   2.9622663
  38.2667319  40.6953699   2.6364108  38.1774839  42.1523731   3.0631264
  21.2557404  30.8833146  11.1898975  20.3668153  30.4296806  11.1595628
  21.6806210  30.2397110  11.8269243  58.9616626  72.9699068  60.4888180
  58.0499059  72.6998995  60.2443627  59.0313890  72.7525529  61.4050931
   7.9048414   9.3761392  57.2487191   6.9889698   9.5618378  57.4973276
   7.8004500   9.3063698  56.2656419  54.6830713  74.8596906  58.7756442
  53.7035970  74.7190700  58.5416167  54.6633263  74.7599305  59.7401409
  37.6457094  28.6885100   2.4075964  37.5734842  28.2248582   1.5976811
  37.9934820  28.0332170   3.0343377  28.0230932  32.8358661   1.4991845
  27.8337684  33.7510973   1.7942636  28.3595851  33.0758203   0.5788636
  63.8801778  62.8302483  62.8495900  64.5978100  62.1111661  62.8811051
  64.5248382  63.5075619  62.4516219  64.0840994  66.7070155  60.6749325
  63.6680753  67.5530299  60.2847883  64.8698886  66.6845781  60.0503301
  44.8373561  21.1147882  15.1874004  44.8518764  22.0164113  14.7477265
  45.6636065  20.7435104  14.8118290  43.1826435  26.6036974  14.9183733
  42.4207455  25.8885778  15.0794520  43.3645409  26.7371908  15.8678947
  35.9602287  30.6852839   7.3159290  35.4593950  29.8223833   7.1623047
  35.1814644  31.1642946   7.6109992  38.5940774  37.4541647  -2.4711054
  38.8579098  36.6313819  -1.9786901  38.3846951  38.0196387  -1.6813692
  39.5311315  23.6904727   6.1350102  39.6988196  23.0961056   5.3440330
  38.5425630  23.5717021   6.1405366  32.6260451  30.5759476   2.2466315
  33.3502373  30.5101538   1.6263118  31.8624029  30.6191239   1.5533320
  38.7297791  26.6058384   3.9483001  38.4199769  26.0211791   4.5959851
  39.6976744  26.4806268   3.9800404  49.4789452  62.2648037  64.8945484
  48.5578475  62.6453433  64.9884632  49.6328032  62.5938625  63.9859170
  49.6717394  45.5743615  -1.2228252  48.9826626  44.8726115  -1.0684067
  50.5070698  44.9859622  -1.2022914  26.4402323   1.8509875  58.6445336
  26.8326378   2.1064844  59.4963881  27.2786673   1.6741797  58.1572025
  35.6355702  29.9990873  10.4435183  35.7215008  29.9023735  11.4096533
  35.1233589  29.1996061  10.2836086  45.6114561  21.0832936  10.9302036
  44.9780232  20.3940046  10.9257688  45.3146196  21.7488318  10.3653548
  69.5236753  60.5976294  60.1625923  69.2969592  60.8791964  61.0821208
  68.5944509  60.3757384  59.9043587  41.3112475  24.7371818   2.8238180
  41.0914219  23.9234432   3.2775317  42.1720825  24.9526363   3.3371759
  76.4501837  59.0242503  58.0730488  76.9051641  58.8402149  58.9337964
  75.6873207  58.4495625  58.2133419  31.0603441  37.4928135   9.5533992
  31.8482398  38.0995570   9.5549799  31.0559290  37.1919995  10.4507450
  48.6734544  61.6029589  70.4234957  48.8974949  62.0096973  71.2770836
  47.9154521  61.0303549  70.6757958  36.1626909  29.2451738  13.0439934
  35.7752537  28.5078257  13.5635671  36.5119723  29.8094513  13.6870173
  44.3892329  63.6803847  63.7431730  44.8300949  62.7944080  63.5196705
  44.2354031  63.5404394  64.7027889  25.3121880  32.3015439  11.5917253
  26.3208691  32.4172974  11.4310536  25.2480937  32.8589272  12.3743561
  46.5938293  79.3157679  42.1871865  46.3759692  78.3693418  42.5334382
  46.9877305  79.0187070  41.3534035  45.4617832  65.1373850  61.6420361
  45.5746291  65.9850258  62.1332945  45.1785514  64.5858837  62.4347972
  23.7649144  21.6715492  16.6849324  23.4858843  21.9845901  15.7758824
  23.8522671  22.5072846  17.1435008  48.9232139  24.3331801   3.1940414
  49.3174344  25.0733339   3.6477351  48.1519782  24.1305190   3.7847721
  48.4841119  32.1435158   6.4435801  47.9581802  32.8499561   6.8585589
  48.8145030  31.6696863   7.1909757  36.3280246  35.7258247   0.4421009
  35.5045527  36.2454525   0.3980031  35.8947238  34.8113870   0.2604902
  60.0404992  57.9696429  65.1629401  60.9570898  58.4096496  65.3290865
  60.0503632  58.1607130  64.1854568  66.8574601  60.3665840  59.7720631
  66.0387242  60.8316548  59.5193074  67.0760049  59.9339278  58.9178268
  23.2990134   1.4986967  54.8675533  24.1622571   1.6651157  55.2924173
  22.9207919   0.8261039  55.4558829  27.8436612  46.8876277  -2.7395532
  28.4175209  47.5681711  -2.3411217  28.4912906  46.5501486  -3.3710909
  65.3379110  65.1162645  62.4193185  64.9621979  65.8218895  61.8891751
  66.2253041  65.5464600  62.6607189  44.3236304  66.3023503  71.0640790
  43.4389450  66.4251561  71.3835291  44.6714248  65.8134163  71.8488111
  33.7337916  39.5722038   3.1253852  33.6405086  38.6563150   2.8616360
  34.2283294  39.8791929   2.3143076  34.6620224  27.1796528   3.6103193
  33.9449450  27.6733823   4.0002805  34.8706286  27.6470162   2.8125764
  39.4298941  23.2480861  19.6808112  39.8529129  23.7310455  20.4597462
  40.0668448  23.3872452  18.9684312  43.8289084  49.7564634   5.0382356
  44.6952805  49.4514080   5.4043762  43.7270859  50.5824236   5.5502865
  52.1819354  36.8420697   5.8760105  51.2233626  37.0498926   5.9893476
  52.1144143  35.9084260   5.6685218  33.2499048  48.7971132   0.5769882
  32.7068079  48.2773913   1.1371240  33.4764478  48.2011752  -0.1169049
  25.8889482  20.1274155  61.9015497  25.7946905  20.7610291  62.6228235
  25.4231227  20.6204378  61.1795207  47.3331312  43.6179875  -1.4174652
  47.4206804  43.6829132  -2.3513903  46.4290175  43.2139488  -1.2916399
  40.0034649  53.4155069   3.7799566  40.8468645  53.2211768   4.2776499
  40.3813071  53.4584053   2.8832933  19.1677096  17.6803106  65.7437636
  19.9964858  18.1312590  65.8019037  18.5545278  18.4208530  65.9305948
  24.2015562  18.2531985  59.5029977  23.9525333  19.2162836  59.5909305
  25.0193905  18.3099389  58.9661090  52.8229004  38.3416521   1.4445692
  53.7461533  38.3366438   1.8365755  52.8083163  39.2766599   1.1100638
  46.0140702  44.7368171   1.5504438  45.1681112  45.1687442   1.7066586
  46.1026188  44.7716218   0.5793172  25.3381000   6.6139087  63.3741802
  26.3243876   6.4066417  63.3568444  24.9847701   5.7461277  63.1591206
  47.4151327  41.8245895   2.8661005  47.9244987  41.6852493   2.0844448
  47.8113758  42.6401876   3.2910390  32.6334859  45.7523146   0.1621935
  32.0994227  45.5485131   0.9702318  33.3544124  45.1416345   0.2388050
  43.0502403  31.6285365   6.4842470  42.4498112  32.3541681   6.0566772
  42.8655131  30.9604385   5.7601037  33.3926899  41.7821393  -1.1459387
  34.1354724  42.2819469  -1.4703894  33.0974954  41.3363125  -2.0022725
  44.5942983  38.3658127  10.4768278  44.9428900  39.2621985  10.5567777
  44.2602317  38.1989375  11.4213362  50.6621943  39.2849962  -4.0421919
  50.3291915  38.5250501  -3.5286786  51.1912221  38.7575893  -4.7440207
  41.0726170  41.8287549   4.2626593  41.4836724  40.9298167   4.3610612
  40.2125774  41.5720344   3.8268380  42.2196730  44.2071983  16.6015930
  41.4261227  44.7449573  16.5042628  42.4334357  43.9015620  15.6819483
  20.3087409  15.3795696  53.2214592  19.6502265  14.9398328  53.8018523
  20.4085276  16.2398381  53.6740978  30.8767660   7.1066174  62.3242572
  30.4947781   7.2011999  61.4162571  30.2507029   7.6719831  62.7940319
  48.4785258  45.4338749   2.5843699  47.7305416  45.0853595   2.0147785
  48.6944798  46.2857182   2.1289756  37.2714449  50.5969183   6.5150724
  38.2211498  50.7028084   6.3770115  37.2974648  49.7744731   7.0618467
  19.1299280  12.1497410  63.9237687  19.6342471  11.6093318  64.5402726
  18.9443768  12.9382559  64.4184609  49.3566177  37.1846225   6.6786377
  48.9482060  37.9866060   6.3937651  48.5755500  36.6352385   6.9966524
  44.6746055  53.4866797   3.8530090  44.5023815  52.8227275   3.1405114
  45.6185661  53.1963043   4.0263995  16.6645874   2.2684625  56.4968345
  17.1122605   1.5382924  56.9007370  16.0403889   2.5227290  57.1918803
  41.5325091  42.4080348   0.6528612  40.6690046  42.4169436   1.1507414
  41.8313755  41.5000495   0.9354382  38.4458954  41.7113489  -1.9785082
  38.5270935  42.4087322  -1.3037142  37.7532890  42.0878043  -2.5626766
  25.2316546  14.0417307  63.6618524  24.3440536  13.7321424  63.6637475
  25.6171990  13.6314207  62.8975316  37.2032930  51.1320091   1.9168797
  36.9431478  50.2341806   1.8061287  36.6870835  51.3561779   2.7463502
  42.9475389  44.7780861   6.1723126  42.7314006  44.8524678   5.1955838
  43.7268104  44.1911717   6.1387060  32.4950236  42.9203957  -4.6561729
  32.6536615  41.9869735  -4.4210845  33.2461676  43.3977673  -4.3560587
  41.2943984  46.3637374  -3.7360741  41.7110905  46.9102248  -3.0320200
  40.3998053  46.3185600  -3.4820005  37.8793124  48.3625694   7.8572546
  38.3471115  48.1803356   6.9964884  38.6659157  48.5859112   8.4439382
  40.0222563  50.2714637   6.1164656  39.9194112  50.1862193   5.1379273
  40.2287497  49.2884188   6.2987365  21.4645410  21.7260878  64.9176002
  21.6328672  22.3969219  65.5907914  20.7713670  22.1995254  64.3759897
  47.8294780  48.9943968   8.1730234  48.1857350  48.9394930   9.0656291
  47.1669777  49.7046890   8.2218523  26.1184310  16.3758338  64.5135246
  26.4669263  16.9128047  63.7477171  25.7609845  15.6158798  64.0255583
  45.1890638  41.0853526  15.9150192  44.7564534  40.7027441  16.7305239
  45.2395328  42.0106674  16.2934865  50.4708843  51.4941202   6.7324625
  50.6643784  52.3075542   6.2227153  50.3747319  50.8834604   5.9710445
  43.3182146  46.1584457   2.1803448  43.2805470  45.3712430   2.7587644
  43.5127625  45.7206138   1.3182061  52.7487135  40.8451755   0.6718373
  52.4549045  41.7117765   1.0558998  52.5625282  40.9554445  -0.2559751
  48.5018678  32.2737029  -2.5757651  48.7076329  32.6168215  -3.4223682
  49.3218986  31.8047323  -2.3070141  58.0428389  66.3734235  54.6671698
  57.2651632  65.8154442  54.4722868  57.9442440  66.4609879  55.6650924
  35.6753581  12.5950797  59.4676108  35.7954205  12.4425723  58.5205049
  36.5215368  13.0286426  59.6800086  20.7075823  11.2960962  56.5181198
  20.6613069  10.3369505  56.3899958  20.2651590  11.6466232  55.7410291
  57.5389404  40.6156992   0.5209165  57.3033067  41.2412956  -0.2279436
  58.1656104  40.0487776   0.0051613  21.9939946  -1.9849207  54.3228060
  21.6708534  -1.2394990  54.7978012  22.4238747  -2.4877032  55.0532732
  22.3369558  -1.7215214  49.7941433  22.9802488  -1.0264323  49.6787797
  21.5020268  -1.1023086  49.7801832  24.1917937   3.4864602  57.4343993
  25.0520836   3.0129841  57.4458759  24.5526462   4.3376821  57.0373814
  53.8727567  36.4725822  -0.2174145  53.4669542  35.6770148   0.1995543
  53.6439488  37.1843160   0.3334342  59.2711571  78.0829728  58.2450821
  58.4728124  77.6280790  57.8998254  59.1770144  78.9253952  57.7784068
  44.3374325  36.8914804  -2.1172715  43.3862655  36.8156381  -2.3119903
  44.7049038  36.2484150  -2.7713278  15.2725198   5.9607737  55.7458628
  15.7110236   6.0038199  56.5894586  14.3299447   5.8037060  56.0393404
  57.3613188  48.4968963   6.7254287  57.3148864  49.2666919   7.3108520
  56.5271193  48.0107819   6.8436580  37.9181618  36.8000262  -4.9988222
  37.5691114  37.6447547  -5.3744671  38.2237840  37.1171827  -4.1179594
  26.9687006  17.4320804  62.1621420  26.4455797  18.1549183  61.7097665
  26.9710002  16.7365899  61.5085076  45.4202020  46.6696967  -0.7979550
  45.9877337  47.0362443  -1.5311876  45.3453382  45.7539709  -1.0272781
  28.8257866  20.0132110  60.2747658  28.6638862  20.0477032  61.2092298
  29.5316459  19.3778061  60.1610493  59.9443330  73.7628799  53.9414048
  60.6223182  73.2884893  53.4303456  60.2817209  73.6001248  54.8534640
  46.4885025  41.9725579  -4.4038341  47.0705508  42.0255974  -5.1620620
  45.5786553  41.7833571  -4.8071913  48.6439772  42.0770466   0.2917288
  48.2855807  42.7412793  -0.2504286  48.1194944  41.2762587   0.0035717
  26.5936541   9.4310680  63.4232575  26.3141836   8.7265530  63.9521579
  26.9632737  10.0605291  64.0996503  49.8461641  30.6475630   8.0546238
  49.3452740  30.4047320   8.8355389  50.6316681  30.0795832   8.1286463
  52.2387564  46.4597520  10.4949207  52.2827058  45.4651378  10.2746646
  52.1239126  46.7828483   9.5995114  25.1581215   7.2634537  59.9105525
  25.9633076   6.9740748  59.4081333  24.6579894   6.4192442  59.9215587
  43.4217475  39.9723197  -2.6737759  43.1190312  39.0278205  -2.5396201
  42.6018841  40.4439719  -2.4573730  73.4711991  68.0073806  57.9882256
  73.4316776  67.8624160  58.9642075  72.9540148  68.8920314  57.9898424
  41.7866728  35.4157138   9.7691582  41.0240359  34.8033042   9.7189737
  41.4383191  36.0794233  10.3751990  13.5289077   3.9832264  51.0326063
  12.9744488   4.7590957  51.1872654  14.3065486   4.1744709  51.6049062
  28.2576067   9.3872820  55.5925057  27.9016916   8.4917979  55.5803766
  27.4866300   9.9181969  55.9026621  43.9512268  35.6979298   7.3044873
  43.1710284  35.3262316   7.7092489  43.9168854  36.6452883   7.5755905
  42.7400104  56.6264233  13.4103687  42.8938104  57.0492441  12.5426906
  43.6664772  56.2574590  13.5290073  37.0701798  39.1196977  -5.9762847
  36.6002835  38.9855190  -6.8004495  36.3162833  39.3434122  -5.3536717
  29.5572683  39.3230498   0.5099007  28.9864445  38.6461287   0.1429617
  29.2911456  40.0932113   0.0865960  26.7728740  23.3529216  65.7896938
  26.4887775  23.2808409  66.7173261  27.3823854  24.0900062  65.8530471
  38.8770215  33.1221207   0.9544661  38.4695386  32.3012558   0.6866634
  38.6023895  33.1527100   1.9173575  57.9165016  40.6023365   7.9662368
  58.7310634  40.6091203   7.3593655  57.6751122  39.6623977   7.8954172
  45.3463417  46.8252940  21.2136560  45.2022963  46.3551959  22.0832136
  44.3633371  46.8237003  20.9791409  41.3067631  49.5933889   1.1102659
  41.3566867  50.3557767   1.6578370  42.1781457  49.1623031   1.2652797
  10.5240227  28.9354764  69.1312133   9.5697447  29.0575080  69.1966659
  10.6821795  28.2540904  69.8791768  45.8005841  36.5056410   3.7256977
  45.0345161  35.9881872   4.0301923  45.7142224  36.3430070   2.7776360
  51.9537074  43.8414832  10.1426705  51.6788314  43.4052325  10.9671542
  51.1468571  43.7984700   9.5877388  42.1008028  48.0347984  11.9923369
  41.9207158  48.8538584  11.5145998  42.7341910  47.5657254  11.4596406
  42.2350230  40.1012570  14.0698500  42.1193886  40.1210253  15.0121324
  42.5774164  39.2184529  13.9352792  28.2630312  41.9668404  -5.2037751
  28.8367162  41.4807586  -4.5965232  27.9498925  42.6520392  -4.5682811
  19.5941451  14.9815190  65.1844750  19.2454157  15.8758057  65.2745658
  19.0221794  14.5192331  65.8754223  34.8386859  40.1010343   0.6276887
  35.2939760  40.9044835   1.0062146  34.2294215  40.5448851   0.0031255
  59.4094984  42.4661569   4.7510653  59.1097515  41.7740770   4.0825575
  59.5410623  41.8362833   5.4968114  33.6118779  37.0762918   2.1816746
  32.9257459  36.5590481   2.6995967  33.0689167  37.2437391   1.3716007
  42.6111287  47.4175560  -1.6788736  42.3872142  48.3529773  -1.5777395
  43.5583652  47.4343521  -1.5408966  21.7432211  12.6047377  60.5358368
  22.3700047  11.8598486  60.5918140  21.5779607  12.6058591  59.5740482
  48.2920956  31.7052312   3.6041816  48.0264220  32.0677646   4.4691390
  48.4241508  32.5614885   3.1392705  20.1499835   5.7987103  55.9006238
  19.2330128   5.4669285  55.7558291  20.5933147   5.0162139  55.4921055
  20.5643699  18.7675004  48.1445461  21.3126651  18.1440593  48.0974148
  19.8223962  18.1116389  48.0298224  17.9225572   8.4018838  59.7200698
  17.7348248   9.1966271  60.2492130  18.2303837   7.8107939  60.4447806
  41.0893564  45.7041976  -0.6223558  40.5656733  46.3574017  -0.0420645
  41.6623606  46.4386572  -1.0513360  60.5847245  70.0897390  53.3475386
  60.2308687  70.3676444  54.2088430  59.7636112  69.6179506  53.0041938
  31.2076196   1.6970433  57.8650352  31.8912833   2.0181811  58.5056101
  31.7621333   0.9987468  57.4444933  20.3302174   9.3103524  61.7487376
  21.0219835   9.9762004  61.7400726  20.5706470   8.6587835  61.1010489
  34.4804744  37.7667163  -0.8934735  33.5163577  37.8093510  -0.7915202
  34.7109724  38.5348283  -0.2863023  40.9863976  34.3681983  -4.3626615
  41.7039986  34.6702767  -4.9588054  41.0338610  34.9061502  -3.5982558
  36.9750706  39.0196018   3.0219712  36.1795421  39.5777760   2.9496975
  36.5111413  38.1629372   3.2423293  50.7536037  34.8244637  -1.4165832
  50.4857489  33.8885675  -1.4475504  51.5289810  34.7422885  -0.8599816
  60.0898968  63.4225827  64.4876055  60.5000589  63.0649519  63.6417204
  59.4613815  64.0536183  64.1049632  39.1266266  43.6720615  -0.0954391
  38.6065733  44.2874365   0.3981906  39.9136404  44.2706835  -0.3391282
  24.7427773  24.2592084  68.5450352  24.6830665  24.2696422  69.5717342
  25.5496388  23.7774649  68.4363470  32.8936669  51.3271986   1.4399204
  33.1408877  50.3875658   1.1590335  33.1775259  51.8246453   0.6222167
  43.0235916  43.7816198   3.5185834  43.7644859  43.1219338   3.4571594
  42.2918895  43.1650304   3.5756279  40.7753847  51.6967075   8.3718095
  39.8974466  52.1181609   8.3398676  40.6938274  51.0945246   7.5956788
  51.3138854  55.6797511  15.4386133  51.0046549  55.7404383  14.5166513
  51.4860122  54.7026728  15.5044806  51.8208195  48.0683017  18.5339167
  51.8174543  47.0539594  18.4804490  50.8668385  48.1516100  18.8744145
  51.7409275  43.3273787  15.7836249  50.8767243  42.8422025  15.7150360
  52.1511302  42.8134936  16.5299060  31.3961360  45.2555315   2.4398399
  31.5900585  45.0187256   3.3563962  31.1722889  46.2107558   2.5461944
  31.9757342  13.7137607  66.7047454  31.6749106  13.1201267  67.4812627
  31.5607978  13.2073532  65.9875056  55.9842317  35.7407232   1.7870560
  56.8875222  36.0653787   1.9673722  55.5200162  35.9655201   2.6429008
  31.0358957  44.4875054  -6.2046474  31.5189903  44.0330985  -5.4955954
  30.7663772  43.7538571  -6.8076423  25.1357490  11.5090529  59.1970657
  25.5273886  10.7453597  59.6769735  24.2328531  11.1344807  58.9501765
  32.8554165  31.8398128  -0.6315795  32.2339947  31.1065749  -0.7676316
  33.2899977  31.8771167  -1.4794328  49.0460533  38.1495291   0.6287282
  49.4862397  38.4146092   1.4632945  48.2754420  38.8170516   0.6249487
  43.3464325  44.4154830   0.0176349  42.6730108  44.9766142  -0.4923407
  42.8210108  43.7105654   0.4104969  35.1662272  45.0610576   1.4830084
  35.2092025  45.6183929   2.3027304  36.0087724  45.2344208   1.0841930
  58.0394410  46.1193014   8.8011987  58.3374690  45.1507739   8.6389131
  57.1089433  45.9551555   8.5257654  46.9520740  39.7010439  -0.0725266
  46.7718976  39.8304851  -1.0641762  46.1606619  39.1069811   0.0983211
  46.7474195  49.1521092   1.4083987  47.4000200  48.4204681   1.3150009
  47.1199589  49.5961560   2.2316580  26.3832852  12.8883832  61.4578019
  27.1640719  12.3099415  61.2761812  25.6635706  12.2280341  61.2855387
  44.7517791  15.3030049  62.4261893  45.2287653  14.4452638  62.7007735
  43.8423132  14.9922163  62.5432740  45.7439175  41.9410301  13.4381660
  45.4269267  41.5509115  14.2471874  45.3317706  42.8083341  13.3914446
  36.9614632  42.3014527  -4.5253396  36.3086676  42.2024407  -5.2538454
  37.4499973  43.1148450  -4.9021109  39.9921701  47.6991334   6.2628503
  40.2396522  46.7879204   6.5201017  40.3656169  47.6916374   5.2937785
   3.3140443  68.2984864  47.6453281   4.1521739  68.6044832  48.0247840
   3.7742429  67.6319534  46.9913917  19.8877968   2.9755494  50.3942128
  20.0558119   2.0253283  50.6459480  20.7965215   3.3028221  50.2900639
  41.1853225  41.3173886   9.8409839  40.8561949  40.5097735  10.3070526
  40.9107072  41.0370459   8.8980611  30.6434060   1.9374068  45.5500302
  30.2721744   2.7978008  45.3873916  31.2203888   1.8165419  44.7709458
  48.3626334  36.5867711  -5.9134975  48.2807789  36.8023163  -4.9326189
  48.6346654  37.4182171  -6.2810342  40.3963356  63.8917296  19.0140239
  39.7183095  63.7336178  19.6895393  39.9391672  64.5283671  18.4468633
  42.8813346  40.3427775   1.4505561  43.4401810  39.7571416   0.9098739
  43.6179585  40.8400913   1.9206925  25.4706319  26.4430390  63.5918109
  25.2525494  26.6998523  62.7066928  25.5328560  25.4508810  63.5378277
  42.2878991  50.0166743  10.0003952  43.0969039  50.2699447  10.4116438
  42.0121064  50.8577684   9.5615183  30.3962903   8.8248122  57.2282494
  29.8034049   9.2834967  56.5474469  30.2731188   7.9236879  56.9211192
  40.6641005   9.3414864  64.7878499  39.9632298   8.8776399  64.3165378
  41.2623029   8.6803146  65.1191093  29.9454979   7.6071587  59.7458948
  29.7782637   8.3327845  59.1146823  29.2696236   6.9867621  59.4743721
  34.5275521  54.9348823   3.1878780  34.7810069  55.2764225   4.0958029
  33.9858856  55.7259836   2.9231218  29.9282150  51.5215843   0.0690506
  30.6365602  51.1959866  -0.4709121  30.2445916  51.3745117   0.9812502
  45.7773615  43.5373823   8.3223494  46.2838072  43.4355079   9.1487207
  44.8596923  43.2713658   8.7594202  45.8141657  63.2162502  11.6409096
  44.8608179  63.4000725  11.6555621  45.8196916  62.3251555  11.1877106
  22.9231237  -1.9789752  46.4875670  23.4872936  -1.9027158  47.3048539
  22.7146505  -0.9822058  46.4395171  41.1137894  62.0623961   5.8402914
  40.7374560  61.3234212   5.4118763  41.8959831  61.6008899   6.3202776
   2.9309029  34.4851107  55.9443444   2.8106127  33.6674924  55.4197293
   3.2220049  35.0784535  55.1999919  73.2297014  64.5911236  51.9781491
  73.8421577  65.3549080  51.8061569  72.4572710  64.8684752  51.4257833
  40.9789954  59.0947033   4.7769114  41.4417692  59.2941112   5.5663190
  40.3126557  58.4502624   5.0453902  40.4187333  45.0472066   7.2474162
  40.0289827  44.1779347   6.9871233  41.3369134  44.9180703   6.8877889
  46.1164050  52.1835339  11.0154740  46.2032854  51.5317865  10.2910530
  47.0436373  52.4129302  11.1272577  46.5768080  59.1919547  12.6235115
  47.4121544  58.6786779  12.4610401  46.4241167  59.6158749  11.8032443
  10.8178357   9.9333606  58.1850797   9.8622994   9.6910273  58.0583143
  11.0651090  10.1582289  57.2599389  47.9325536  52.2597767  13.9924836
  48.1563861  51.3741293  14.3937571  48.3971356  52.3025703  13.1743212
  50.9426858  49.6841073   4.6805565  51.3856808  48.8389095   4.9247924
  50.9924733  49.6788858   3.7166363  17.8639216  10.3728678  54.4512573
  18.2830698   9.7827634  55.1009888  17.1003037   9.7862207  54.1526200
  27.3230114  26.0178358  70.3079858  27.1021363  26.8079181  70.9098516
  27.0196212  26.3912215  69.4405539  45.1720656  43.3013467   5.6895178
  46.0922159  43.3472298   5.3630024  45.3560939  42.9165620   6.5697808
  24.2494637  15.8299455  66.5274995  23.6540239  15.4440813  65.8548618
  24.9961020  16.1231217  66.0034682  51.7598578  63.3164921  10.0685980
  51.5356342  63.8723114  10.8114856  50.9580689  63.5266814   9.4988208
  16.5717322  24.5812801  63.4923201  16.7398169  24.9914242  62.6199066
  15.7670691  24.9634217  63.7445156  47.3676454  64.6409567   9.8645088
  46.9971438  65.5096133  10.0428296  46.9209095  64.1440797  10.6148465
  15.8701647  11.5985448  56.7497450  16.3386636  11.7664352  57.5913161
  15.4627095  10.7766674  56.8854983  39.0166895  34.1250431  82.6280112
  38.5502430  33.5638418  81.9298447  38.4637829  33.9345247  83.3791951
  35.8850518  34.1721281  79.2676117  35.0858325  34.5457602  79.6286655
  36.3089708  33.8070587  80.0362407  11.6313720  16.7679744  62.6759214
  10.8287621  16.6881898  62.1889884  11.5018493  16.2702197  63.4524698
  46.0391447  56.4487749  27.4583197  46.7120442  56.9050855  28.0220742
  46.5546574  55.6986041  27.0963272  45.4260702  24.5475398   5.6460317
  44.9992591  24.8635830   6.4419196  46.3809426  24.6599850   5.8359512
  43.5102124  35.0577213   4.5664383  43.3844671  35.3341207   5.4787839
  42.5867999  34.7452675   4.3901875  45.3009347  30.4169795  -2.0540388
  45.6762813  31.0989387  -1.4908609  44.8339296  30.9245267  -2.7704444
  39.6012960  25.3573731   0.7659813  40.0996647  24.9626122   1.4979070
  39.7914869  26.3175893   0.8247618   6.1825303  66.0414526  50.6646025
   6.6115746  66.7076244  50.1717941   6.4044820  66.2361116  51.5803799
  75.7486268  51.5334084  47.1112513  75.3261404  51.1984757  47.9304691
  76.5436586  50.9163519  47.0703825  29.2292669  -3.0244141  52.1794372
  29.7898904  -3.8494728  52.1165230  28.4030458  -3.4078718  51.8578880
  64.7371102  67.7931101  49.9484353  64.9737824  67.5683412  50.8672382
  63.9584648  68.3568966  50.0547027  26.2522436   3.5117656  48.8327286
  27.1780333   3.1325502  48.6591707  26.3797826   3.8146152  49.7641162
  53.5406744  32.9351113  -3.7812739  53.9186777  32.0873431  -3.5323136
  54.1707976  33.2118805  -4.4619250  65.5034119  70.6247320  40.9248764
  64.8342239  70.8079248  40.3078467  66.3539841  70.5416948  40.4038948
  71.5434622  54.2540193  60.0822041  71.9455549  54.7819704  59.3571636
  72.2512168  54.3745848  60.7522676  69.1159164  62.5202055  54.3634323
  68.2843662  62.5291037  54.7669756  69.2563648  61.4948762  54.3559144
   2.2614980  58.8021590  49.4555860   1.9346679  59.7020715  49.5758164
   2.2845972  58.5058059  50.3810040   3.6296712  53.4550912  59.2594358
   3.4900756  53.1287473  58.3559574   3.7269106  52.6258102  59.7557959
  74.2092416  69.5289782  51.2927867  74.8081317  70.0700953  50.7275019
  73.4254878  70.0568792  51.2644657  13.3539099  57.9085190  72.2551249
  13.7903088  57.8967853  73.1052403  12.5298186  57.4288338  72.4939482
  68.3044496  63.8641097  57.6507820  68.8602735  63.0931422  57.4401452
  68.0798487  63.6907884  58.5748327  72.7054508  63.9984260  59.7397326
  72.9071947  64.8529968  60.2066527  73.2855739  63.3950676  60.2702808
  42.5966147  30.6113361   1.0266564  42.0476881  30.8390893   0.2303546
  43.4706338  30.6924024   0.6140082  53.5659136  33.3852333   3.8782675
  52.6263267  33.5704848   3.9840087  53.5961325  32.4654004   4.3303682
  57.4755428  33.8735953  -5.0875647  56.5819545  34.1277357  -5.4375306
  57.3460513  33.2706801  -4.4010231  61.0406955  35.7423260   0.7073292
  61.2107534  35.0449414   0.0374657  60.0659537  35.5401715   0.8279893
  48.8024203  40.3099996  10.7043071  48.8507122  41.2376918  10.9792192
  48.0750936  39.9555143  11.2893452  32.2987804  -0.6799899  56.7203649
  31.8346350  -1.3688211  57.2646678  32.8970333  -1.1868111  56.1912811
  26.5833664  -1.7141805  56.4646817  26.3325246  -2.5627775  55.9991959
  27.5955511  -1.8706481  56.5386423  75.0774673  61.6310102  58.2367786
  75.6464296  60.8584522  58.1186002  74.4115419  61.4468091  57.4951432
  66.3077806  69.6214620  48.5830173  65.4565904  69.8430077  48.1347702
  65.8823621  68.8705396  49.1291453   8.7663296  68.4194880  55.0173373
   8.3564923  68.3933860  55.9318143   9.3122715  67.5789223  55.0900115
  20.1880320   0.4261181  55.8961522  19.7596091  -0.3749668  56.3917186
  19.8384674   1.1228370  56.4997926  53.8517351  37.4070608  -3.1241155
  53.2787193  36.7544968  -3.5894450  53.5790378  37.2307171  -2.2226689
  47.6037278  37.3691833  -3.4820447  48.4494074  37.5387188  -3.0473271
  47.0910530  38.1335000  -3.1961298  76.2584570  59.4987374  51.9504473
  75.4909462  58.9160176  51.9477984  77.0111928  58.9736169  51.7482305
  23.9307295   0.4611288  49.3335617  24.6124076   0.0738866  48.6868483
  24.4041345   1.2590945  49.5789703  13.4508920  65.7995174  58.9666678
  13.6892807  66.1212707  58.1166923  14.1619564  66.1679272  59.5635322
  31.8979343  -1.1233750  59.8975102  31.6310178  -2.0725192  60.1485950
  31.3410451  -0.6274744  60.5255056  48.9261043  30.1092670  -0.1357267
  48.7303946  29.7934314   0.7967910  48.4273620  30.9281159  -0.1732565
  48.8965778  34.0691774  -4.9673515  47.9896344  33.7013238  -5.1833046
  48.7178409  34.9910984  -5.0829285  46.1970884  39.6527795  -2.7107154
  46.3915492  40.4730352  -3.1302968  45.2007872  39.7089866  -2.6036656
  11.3685530  56.5670241  25.3265129  10.4280352  56.4469157  25.6400587
  11.6086245  57.2421608  25.9762532  30.4381877  -2.6204951  36.3573934
  30.8718189  -3.4611922  36.5696538  29.6348621  -2.9218133  35.8927904
  50.1370905  13.6757861  77.3596970  50.1220790  13.0879658  78.1498765
  50.7437649  14.3809366  77.5721637  16.4588829  60.6650009  31.0118018
  17.0985393  60.0432335  31.4459431  16.7334821  61.5074062  31.4311839
   2.3216307  54.4322806  27.8354427   3.2556449  54.4960692  27.6703758
   2.0326227  55.3618325  27.7971221  51.2545257  26.7843272  71.6855440
  51.9688639  26.7945121  72.4062304  51.6862066  26.1105376  71.0935922
  30.8013285  -4.1607330  21.2956234  30.1468556  -3.7010520  21.8650528
  30.3309610  -4.3867448  20.5445152  69.5853186  64.0816226  32.0513085
  68.9719893  64.2072171  31.3080497  70.4253716  63.9534205  31.6146914
  77.2205763  63.4669880  38.7794568  76.4749819  62.9154360  39.0758937
  77.9359148  62.7981571  38.7972237  12.2046517  64.3658956  18.9806694
  12.2764471  65.1604236  18.4228147  11.4847996  64.6784848  19.6263588
   1.9121487  61.3609281  30.9466197   1.2310283  60.9680538  30.2613700
   1.4563390  61.0125619  31.7541804  12.2630028  52.7550164  40.4225952
  13.0733388  52.4254700  40.9233555  12.6599870  52.9007902  39.5600288
  11.3501626  52.7204661  25.9921857  10.5458666  53.1985762  26.2071110
  11.4287190  52.1045769  26.7442439   0.8028171  61.3581139  34.8905484
   0.5246370  62.3267205  34.9135410   1.7474889  61.5431755  34.6635936
  14.4159197  63.9925432  23.7383585  14.0828219  63.4906035  23.0416820
  15.3249457  63.6737871  23.8831072   3.7093582  57.2146906  17.8777645
   3.2708595  56.3876831  18.0386872   3.9949253  57.1267589  16.9065091
   7.2114551  62.0945001  21.8699428   8.1462046  62.1128470  22.2222562
   7.4206506  62.1279949  20.8736902  35.7146309   1.3610402  20.7113160
  35.0404395   0.8825189  21.2269701  35.1585663   2.0337942  20.2699974
  34.9800923   2.5436906  16.5194875  34.4838339   2.3285956  15.7277152
  34.8729979   1.6819091  17.0010287  12.0990566  65.4568101  31.8854255
  13.0424466  65.5870604  31.6412521  11.9235760  64.5741407  31.5108032
  12.6580715  58.2230781  32.0613753  13.0822269  59.0966879  32.0222211
  12.8504880  58.0276888  33.0155690  58.4078786  40.1739793  78.2324937
  58.4517679  41.1169925  77.8409650  57.4644249  40.1236093  78.4700622
   4.5315376  60.8967387  20.7689274   4.9630757  60.0542280  20.4507892
   4.3256796  60.6438848  21.6839372   8.1520079  64.2269053  31.9016520
   8.4697229  64.7934149  31.1797670   7.3024136  63.9419305  31.4978957
  10.3384412  65.3973955  23.8950526  11.1664716  65.6627500  24.3533329
   9.7222643  66.0473202  24.2679590  51.9531401  21.3568378  76.8566681
  52.5779801  21.9507549  76.4141551  51.0954402  21.9062175  76.7930499
  14.1082301  54.0851895  21.5567573  13.2538606  54.3465924  21.0387731
  13.7897356  54.3613875  22.4255733   8.8827931  53.8187418  27.3361590
   9.0827994  53.7526003  28.2707226   8.8593857  54.7662258  27.1795944
   5.5332667  65.9363107  26.7975077   5.1945079  66.8216439  27.1078020
   4.9632859  65.8715833  25.9874068   7.9300718  63.6014992  37.2318399
   8.0770877  64.0694642  36.3214095   8.2548597  62.7470582  36.9556933
   4.9409583  62.9050295  23.9281330   5.8322679  62.9829887  23.5413557
   4.5690061  62.1355581  23.5639858  61.2472986  37.9284778  75.4202688
  61.0968229  37.3878317  76.1539402  60.8713195  38.7803355  75.7549274
   1.5798676  59.1245050  18.5717689   2.1884906  58.5200957  18.1115085
   1.5754858  58.7378176  19.4912394  16.7657377  71.5497318  15.0758615
  17.5276052  70.9854116  14.8249386  16.4341175  71.8252068  14.1886305
  21.9862358  67.2842769  28.8437824  22.9120294  67.0248949  28.8581128
  21.5844751  66.6480235  28.1791618  10.2643157  64.8545214  13.6942278
   9.4719331  65.0045671  14.3122638  10.9522453  65.3739160  14.1560682
   8.9731082  48.2889433  12.1822221   8.1772361  47.6855848  12.2117189
   9.6429319  47.7397585  12.6245106   8.0730361  36.9809435  11.2410349
   7.6273272  37.3536708  10.4574010   7.4948653  36.1640391  11.3463502
   6.3515283  34.8994323  11.7600179   6.1547363  35.1654434  12.6550534
   6.0654543  33.9652924  11.7854195  78.9437003  42.3670844  19.5303896
  78.4208729  43.2195834  19.3559117  79.8592776  42.7387065  19.4954692
   7.6734508  40.2567469  10.0894828   8.6095169  40.0755379  10.2737936
   7.7811009  40.3996441   9.0799742   7.8266688  43.4163707  15.9765512
   7.8722715  42.4799360  15.7062222   7.8454080  43.1772320  16.9960039
  22.7464456  75.2498809  66.2365636  23.6423285  75.3725656  66.6256066
  23.0814001  74.8169388  65.3922074  10.9975114  31.0030961  15.8962638
  11.2588233  31.0110957  14.9731397  11.5914982  30.2893690  16.2459166
  10.1013100  36.4904289  17.7547290  10.7987355  36.8664189  17.2300942
  10.6674656  36.0515065  18.4509039   0.6553564  48.0749935  12.7560325
  -0.0453874  47.5443117  12.4431176   1.4006165  47.5832152  12.3235759
   8.4923639  28.9491136  18.7430000   9.0269929  29.6830467  18.3412350
   8.3878370  29.3858106  19.6245046  27.3663536  73.3153666  62.9045386
  27.6317340  73.6364923  61.9875158  27.0597969  72.3805819  62.5694409
  35.0421410  69.3159799  73.1314390  34.2083905  69.9164807  73.1468896
  35.6637907  70.0711037  72.8833123   0.1965129  48.7005555  20.2443628
   0.8676491  49.4188655  20.1779149  -0.4045124  48.9538810  19.5855056
   5.4052008  27.6837368  19.3489187   5.9884854  27.4878258  20.0482892
   4.9162660  26.8458698  19.2062046   7.9141865  35.8196970  15.9931158
   8.6655691  35.9633522  16.6584209   8.4215260  35.6136195  15.2124465
  17.3561411  48.7300153  10.6184529  17.0051606  47.8544793  10.6916733
  16.6398624  49.2955498  10.9209993  54.2319716  20.9640679  71.5838395
  54.1474771  21.0884537  70.5966709  53.7835830  20.1221149  71.6300104
  52.3523775  14.6417774  75.4831471  51.6994849  14.8710461  74.7475730
  51.9861149  15.1867628  76.1935605  79.0018458  55.5561974  23.9132529
  79.4101049  56.2534333  24.4344915  79.4378393  55.6827853  23.0471925
  75.9764750  51.6091159  23.9511623  76.9851251  51.8118762  24.0290093
  75.7634819  51.9225674  23.1089763  76.5949798  49.4898340  25.9615604
  76.9864714  50.2051017  26.4755016  76.3388792  49.9806978  25.1595367
   6.3368253  51.1150182  21.2047281   6.9907876  51.4878233  21.8220654
   6.4931379  51.6241797  20.3817851  10.9856239  60.5202271  14.3215065
  10.5255630  61.0039416  13.6759500  11.8753078  60.3594366  13.9772162
   7.9103016  49.4637676  28.3033321   8.1280839  49.9347824  29.1606146
   7.2407735  48.8783995  28.6956150  62.5507298  27.8678163  73.5195334
  61.8781262  28.5274791  73.7307213  62.8558530  27.6944816  74.4896586
  14.7602913  66.9918772  18.6981877  13.8644410  66.8278294  18.2692343
  15.2782200  66.7309231  17.8943764   3.4181529  47.5511896  20.7332768
   2.4928567  47.7257181  20.4235704   3.2054793  46.9137146  21.4780076
  53.4509921   3.6600938  70.8878548  53.3305112   4.6301290  70.9584260
  53.8747546   3.5781378  70.0295046  10.8740075  50.0391922  34.5918301
  10.6030560  50.9273009  34.2620885  11.5998159  49.8539196  33.9556060
  48.0052524  15.6826587  75.9958429  48.2303512  16.5894816  76.3227879
  48.4151657  15.1119525  76.5989753  52.1798714  18.9169200  80.3303850
  52.4036780  19.8335268  80.2111530  52.4455179  18.6674625  81.2112872
   9.2063048  45.4380309  13.0685084   9.9325260  45.0571872  13.5864228
   8.5259015  44.7666613  13.0562141  15.4482996  64.5558866  10.1429118
  14.9276120  63.7850565   9.9978224  15.7157303  64.4501965  11.0501742
  55.9116239  21.0146805  75.1084944  55.7623591  20.0560975  75.2025429
  56.8209829  20.9662232  74.6503354  73.9557482  52.3681478  14.3625318
  74.2647965  53.2976105  14.2929989  73.1259151  52.5293183  14.8982690
   8.9722146  45.8747345  16.7621639   8.7401645  45.0460906  16.2368322
   8.3416754  45.8148321  17.5092270  11.2954383  62.8124531  17.0836502
  11.8617549  63.2467591  17.7925906  10.4391110  63.1528786  17.2505628
  58.2244610  25.1694068  66.5006294  58.4733930  25.9003151  65.9130709
  58.3248348  25.6758063  67.3391745  15.8674679  64.6870761  12.9523361
  16.0731204  65.6513243  12.8296405  15.8610944  64.6484592  13.9532012
  50.6610007  11.5404054  75.0446779  51.3451977  11.5317653  74.2937190
  50.9656134  12.3347069  75.5594020   4.9902244  52.5763429  12.7828975
   4.0537344  52.7984526  12.5507369   5.4640157  52.9799559  12.0217703
  60.0855666  20.5875877  77.0228932  60.4516679  20.6682024  77.9457706
  59.9389760  21.5670202  76.8693216  69.2921739  55.0830683  15.5278811
  68.3926210  54.6937236  15.4100198  69.5880994  54.6550453  16.3580627
  12.9003509  48.3703625  23.7667422  12.9725730  48.1768760  24.7042480
  12.6659263  49.3526414  23.8747690   8.6105086  50.7992325  13.2819817
   8.6759387  49.9270811  12.9327723   8.6525142  51.3791692  12.4581865
  57.6956163  12.3593863  72.7792875  57.8602948  13.3480827  72.6974482
  57.4092605  12.4018913  73.7298205  52.9465402   9.5280222  69.7470753
  52.4744790   8.8764810  70.3045114  53.4305516   8.8849953  69.1837781
   4.0149053  52.4329567  22.9339709   3.9148503  51.6758839  22.3499292
   4.3571082  53.0980863  22.2280401  57.3477173  21.0960603  71.3433432
  56.3764700  21.1289841  71.4307443  57.5857394  20.6815815  72.2115030
   0.4282096  36.4780211  18.3598484  -0.0246197  35.5767508  18.6184847
   1.3176483  36.1081375  18.1209945  49.0225699  22.1728151  71.7183551
  49.2052859  22.2217805  72.6726718  49.2048362  21.2132261  71.5299735
  13.3505035  54.4834171  10.3821428  13.9918118  55.1546907  10.7525584
  13.5570783  54.5707447   9.4172565  18.7207925  56.4202171  11.9686734
  19.2604799  56.6680789  12.7139511  18.4833067  55.4908110  12.0851194
  14.1662883  32.9780822  16.8302723  14.1310231  32.1346840  16.2217502
  13.9585127  32.5342864  17.6974326  55.2276599  19.0463130  78.4606410
  55.1466022  19.1180883  79.3970436  56.1740608  19.1041255  78.2521784
   5.3372183  65.1097275  20.6538889   5.5001349  64.1896596  20.8502480
   4.3609452  65.1566950  20.7479599  54.0415896  30.4556755  68.3732554
  54.0858096  30.8809421  69.2446593  53.4981748  29.6485000  68.6252757
  15.5190515  48.9088286  15.0444249  15.1549310  48.5299255  14.1585826
  14.6731043  49.2288749  15.4227718  76.5997129  57.8350044  24.7907736
  76.7131600  56.9028804  24.3882864  76.0606868  58.2264934  24.0489695
   6.0702686  43.8831695  13.9259073   6.6878867  43.8448625  14.6984916
   6.5217127  43.2129633  13.3196107  12.2384676  61.0876007  25.1690779
  11.8176729  61.0503970  24.2698889  11.7004793  61.7890146  25.6128123
  56.2389194  27.3279620  74.2613502  55.9618124  27.9514644  74.9329039
  55.4472305  27.1273311  73.7536556  58.2194738  17.2358377  72.4046182
  58.8141744  17.4439379  71.6608769  57.3267840  17.3425235  72.1033944
   8.6755642  49.2951371  20.2189278   8.1122965  48.7624863  20.8247616
   8.0130322  49.8093776  19.7072426  61.4857405  31.3715484  81.7444663
  61.0295566  31.0020628  80.9620748  61.3940399  30.6215845  82.3623620
  53.5873020  21.7957612  74.2889174  53.6065830  21.5712369  73.3387628
  54.4369841  21.3469838  74.6418374  58.8902878  23.0133648  75.7130983
  58.3503070  22.9861861  74.8976197  58.2532023  23.2298830  76.4010976
  14.6673632  49.8517522  11.2114072  14.5418145  49.6447512  10.2904904
  14.1525640  50.6288070  11.3611934  57.4078915  23.4393714  73.5026678
  57.4890624  23.9312997  72.6267094  56.4202785  23.4679129  73.5755482
  45.0172903  19.9713331  69.9408049  45.5804682  19.3750431  70.5517378
  44.3067519  19.2843418  69.7901815  67.7407416  25.5159202  66.8484289
  66.9760508  25.2302948  67.4334079  67.3027662  26.2682562  66.3983042
   6.4770605  46.9669192  12.1325637   6.4676138  46.2326085  11.5170058
   5.8187724  46.6653281  12.8066515  10.1411351  45.2139983  20.3279231
  10.4886205  44.6780048  21.0562371   9.3177200  45.6475922  20.6582537
  10.7825471  57.0285004  22.3364892  11.0438746  56.9753784  23.2616194
  10.1488466  56.2248586  22.3008941   6.2457114  48.5697747  21.4900028
   6.0406065  49.5239721  21.3334081   5.5102086  48.1530882  20.9983985
  58.9616880  26.4475332  79.2038218  58.7584942  26.2808476  80.1574964
  59.0728113  25.5034802  78.9363709  11.0957277  49.3521162  26.8989542
  11.2531435  50.1264559  27.4919840  10.3372734  49.6091317  26.4321244
  15.5922245  58.3360740  14.2285060  16.3325015  58.0694017  13.6504544
  15.7862895  59.2776000  14.4410126   6.7269729  46.6115418  28.2754683
   5.9386482  46.0743041  28.3976811   7.1358902  46.4855611  29.1926085
  11.1162095  44.4814183  27.9440137  10.3528006  44.2185380  28.3517715
  11.8007200  44.6546132  28.6082579  47.0952879  12.3688289  75.0354890
  47.2720484  12.6049556  75.9629264  47.9793528  11.9360131  74.7830329
  11.4373577  54.1686893  14.2815808  12.0705597  54.9292683  14.2735907
  11.2135030  54.2179611  13.3055682   0.2247004  31.1333129  13.8252765
   1.1676584  31.3414303  13.9707027   0.3565823  30.4774550  13.0917059
  18.1509170  53.9319554  12.7389232  18.2186379  53.8953626  13.7435233
  18.1670341  52.9401925  12.5399862  54.8661754  27.9143137  77.9325899
  55.3773506  28.4135257  77.2309961  55.4429112  27.0899399  77.9755221
   5.5391682  52.0678101  26.4947419   6.2783420  51.7856093  25.9823934
   5.6774767  53.0331766  26.6334593   8.4853457  46.5008954  26.4359291
   9.0270390  47.2812730  26.2927100   7.9118642  46.8303615  27.1874925
  55.8622457  13.7078170  64.1224263  55.9721913  12.7419046  64.2600805
  56.7511770  13.9000785  63.7614039  13.4102746  52.0561850  11.9940913
  13.1553225  52.7626347  11.3284691  13.9697787  52.5338862  12.6171744
   4.4345067  50.6838218  14.8725402   4.5401616  51.2744405  14.1384925
   5.3144700  50.2810063  14.9855731  57.5683057  18.6748965  77.3721860
  58.2904058  18.6104241  77.9604090  57.9473308  19.1701069  76.5975728
  56.7708625  39.9070806  71.4429415  56.7524452  39.2883239  72.2085865
  56.8029126  40.7422936  71.8945951  10.7789818  50.0162019  16.1016287
  10.1262063  49.3831813  15.6755387  10.1872264  50.7927250  16.0675601
   8.7315433  48.0437876  15.2506762   8.5853941  47.4189533  14.5108685
   8.9006769  47.3576088  15.9600229  33.1077358  60.0359216  63.8376341
  33.0204428  60.2870175  62.9130522  33.1676009  61.0014859  64.1772460
  13.2442203  53.1017201  16.0480989  12.8292633  53.3762040  16.9076501
  12.4538327  53.3297808  15.4353641   1.1863092  45.1464302  17.4966731
   0.6931404  44.3365954  17.1828262   1.3481345  44.9466277  18.4552272
  17.5967533  53.1568374  19.9082187  16.9740376  53.0474967  19.1082858
  17.9777808  54.0275110  19.6556790  15.7288474  55.4949631  13.4183577
  15.4494134  54.6081286  13.7583904  16.6150183  55.2438607  13.1377129
  10.8681949  43.9574406   8.3837057  10.2498463  44.4465524   8.9202743
  10.9517255  43.1217714   8.9000166  22.7965472  71.4598610   9.4806186
  22.4870915  72.3967665   9.4881842  23.2780903  71.4359744   8.6537085
   6.9568589  49.9188592  15.3643482   7.4166615  49.0840967  15.2520634
   7.3223714  50.4591234  14.5920698   8.5397885  39.8298909   7.3232859
   8.4741345  38.8982403   7.5472584   9.5041376  39.9848796   7.2964821
  29.6246858  67.1403007  73.0628953  28.9603231  66.8004271  73.6715830
  29.9989015  66.3298293  72.6124946   0.9469645  59.3989086  32.5976139
   0.2039116  58.7692064  32.4246090   0.6920740  59.8501847  33.4024180
  14.9880393  48.4810786   6.5917939  14.4561076  48.0290807   7.3125266
  14.4146933  48.2836612   5.8306693  17.9470499  44.5824380   7.1167338
  17.2846557  44.2669729   7.7200321  18.7810805  44.4396745   7.6526279
   2.7965414  50.6819026  11.7355295   3.6316089  50.2426549  11.4376334
   2.9890065  50.7536926  12.6981080  14.9081917  47.5904277  12.8314494
  14.8450155  48.2545172  12.1526205  14.3938094  46.8677197  12.4196831
  15.1895218  52.9519583  14.0916491  16.0097699  52.5551776  14.4615464
  14.5344123  52.6296376  14.7397635  10.6955997  36.6499253  10.4834882
  10.6996901  35.7155101  10.1322083   9.7649035  36.7670418  10.6155352
  13.4993935  50.4106134  16.2144940  12.5662017  50.1751881  16.0485312
  13.4238720  51.3612889  16.1233173   9.6777332  43.1982863   5.6708730
   9.1349981  43.9238618   5.4285316   9.9052899  43.3754692   6.5765093
   9.1172553  52.8396586  15.2849074   9.9657559  53.3041228  14.9930450
   8.9759095  52.2773788  14.5068437   7.1210368  36.9692197   7.2643896
   6.5185899  37.3751490   7.9332397   6.7049865  37.3650292   6.4394823
  23.7495714  75.8729184  16.6602668  23.6111977  76.0864782  15.6950140
  24.6482487  76.2552682  16.8280012  14.5070801  69.4610689  12.7269384
  14.9180256  70.3206520  12.4542059  14.4063924  69.6117298  13.6463139
  46.3978206   2.6654306  25.1224204  45.5501022   2.2833651  25.5566020
  47.0285736   2.3988642  25.8466626  59.5526928  26.7745373  68.5955864
  59.5303687  27.0437162  69.5553385  59.6897601  27.6577709  68.1950606
  74.8635479  37.4184266  52.9488099  75.6140337  38.0010963  53.1224284
  74.0906758  38.0155545  53.1257831  27.9534818  61.4317451   9.4683286
  27.0849680  61.4357021   9.8466042  27.8756039  60.5414917   8.9781718
  21.6770586  50.5650996  11.4377902  21.2919571  50.6181895  12.3651936
  21.0535709  49.8765911  11.1180901  19.6709924  67.6778085  23.6317264
  20.3317295  67.0241401  23.4021621  18.8350251  67.1769509  23.3995650
  63.4180308  32.0513254  75.8865997  64.2932221  32.0345757  75.5185318
  63.3544203  32.9327328  76.2493920   6.6594835  56.1009362  20.5359754
   5.8861795  56.7514839  20.3994210   7.3261695  56.8546546  20.7071756
  18.8168375  55.8722115  19.8010692  19.1851577  56.4765133  20.4903706
  18.2143103  56.4084054  19.3201354  19.1253780  68.5717430  26.1767530
  19.3328986  69.5289883  26.1320137  19.3974168  68.2883131  25.2741009
  23.8838458  65.7764386  19.7709584  23.5047775  66.6414832  20.0474867
  23.5793566  65.7864207  18.8321660  20.5321206  66.0808829  16.5741924
  20.4777594  67.0612986  16.3815488  20.3485961  65.7836872  15.5808861
  42.1277978   0.0270290  17.2860189  42.7853272  -0.7443761  17.2077778
  42.4513268   0.6257913  16.5908548   2.8032454  38.7878402  71.5365410
   2.2166515  38.1982419  70.9325164   2.5970800  38.2638132  72.3739951
   7.1240898  64.0745571  28.2463937   6.6527355  63.7985370  27.4379485
   6.9195955  65.0175009  28.3164916  69.8631037  25.6582998  71.8537713
  69.1228404  24.9937934  71.8515312  69.6942655  26.0438748  70.9855434
  62.6117724  28.2933932  66.7976472  63.2988521  28.8943639  66.4124800
  63.0930655  27.9650546  67.5797258  14.5063391  66.8821668  21.4374382
  14.9951616  66.0682067  21.3410882  14.5532825  67.1454136  20.4785772
  62.3051746  24.9295570  77.7237096  62.9895641  24.7720665  77.0338184
  62.2742555  25.8541486  77.9194352  24.1710336  75.2311857  10.9393087
  23.9111491  75.0569411  11.8464238  25.1458986  75.0262966  11.0316188
   6.5832363  52.9234793  18.8203790   7.0358444  53.5530641  18.2233575
   6.9270015  52.0705424  18.4755904   8.0289062  69.7210859  20.8952511
   8.6435345  69.7597422  21.6399016   7.5220542  68.9297739  21.0772061
   3.7573402  55.7338225  32.2787522   3.5156403  55.3976723  31.4268816
   3.8008321  56.7020862  32.0893623   5.2908963  53.9351372  20.8198246
   5.8368309  54.8138929  20.7845784   5.8762761  53.4548014  20.1487962
  53.2781279  33.5796269  77.0330473  53.4588606  34.4674331  77.3530569
  52.5508673  33.3579966  77.7378696  69.1739197  30.4691490  74.6132731
  68.9676917  31.3890214  74.3967334  68.3394506  30.0338129  74.2909872
   2.9188725  54.0437927  15.4133225   2.0137029  53.7471537  15.1493884
   2.9559957  53.5096122  16.2744329  64.0880885  35.6132839  74.3409868
  63.7508476  34.8952460  73.7721048  64.7546473  36.0106385  73.7346446
  57.9077509  29.7090677  73.1766373  58.6814341  29.6030877  73.7785789
  57.3636479  28.9556529  73.5576674  15.2456268  60.8820147   7.3137335
  14.3491194  60.6035617   7.6294173  15.5052352  60.0922505   6.8300566
  59.9192296  32.4976984  77.4641628  60.4414418  32.8999889  76.7714557
  59.3571553  33.2728763  77.7144547  69.2773819  28.6829497  67.2653635
  68.5086407  29.0296465  67.7222653  69.8224672  29.4659399  67.1644821
  23.3955108  67.8289902  14.0613057  23.0119175  67.5793015  13.2084479
  23.1117766  68.7541847  14.1264280   9.9311834  52.5925907   7.8515400
  10.6007207  52.7463139   7.1783933  10.3551549  51.9509287   8.4214325
  55.6676004  24.6529597  67.1610045  55.2461811  25.5015090  66.9075386
  56.6167019  24.8933650  67.0054186   5.7206660  63.4135669  16.8842982
   4.8036330  63.2808450  17.1189069   5.9643408  64.2384938  17.2973938
  77.0051510  30.1681867  66.1786489  76.5781747  30.8099157  66.7266495
  77.9090959  30.1583109  66.4735637  60.2378220  30.6455817  79.2099633
  59.3587602  30.3917684  79.5350426  60.0293106  31.3846032  78.6135091
  31.8995794  72.0311225  13.7003296  30.9392907  71.7558729  13.5707999
  31.8688975  72.4507133  14.5479979  64.9702189  57.1032875  12.2199409
  64.5774956  56.4793379  11.5256589  64.1277496  57.3431409  12.6854025
  23.5914832  72.4671135  16.4287166  23.7676605  73.2880124  15.8911540
  24.4905102  72.5443480  16.9063238  26.4950991  61.9047175  15.8206044
  27.2133766  62.5886712  15.6894636  26.0981999  62.2146845  16.6588682
  19.3944813  62.3253027  17.8354699  18.9146720  62.9115010  17.2211407
  20.0078216  62.9699924  18.2651706  37.5085305  -1.3573858  21.1388005
  37.0027327  -1.7040954  20.3691719  36.8904182  -1.6893053  21.8294818
  12.7393293  66.1998706  24.6787684  13.0057393  65.9353049  25.5854595
  13.4698527  65.7737622  24.1362124  67.2626669  28.9145952  73.4870916
  67.8315796  28.4560262  74.1298633  66.5994211  28.2412551  73.2421094
   2.0868079  58.0092629  20.9020379   2.0144073  57.0773256  21.0606974
   1.9424369  58.3276578  21.8859927  22.6270383  70.6441827  13.9374659
  22.8511943  71.3095664  14.6328579  23.4206071  70.7430463  13.3702397
  48.0441201  32.1780844  84.7213942  48.1596441  31.8271953  83.8213742
  47.1532337  32.5455720  84.6879466  72.8202375  26.1083553  57.4970155
  73.4038305  26.6444558  58.0688132  72.9329446  26.6543372  56.6706031
  25.6295111  59.8642451   9.6370779  24.6751059  59.9544565   9.8017110
  25.8889800  59.7321416  10.6139888  12.4789670  66.0752969  15.0763468
  13.3886433  65.7330817  15.1402677  12.5697038  66.7009261  14.3076196
  74.7668118  30.2215713  68.2505696  75.2808967  29.4147149  68.4900987
  73.9492249  30.0978076  68.8147306  26.2615366  48.2138683   7.9664166
  25.5515869  48.2799008   8.6973539  25.6926742  48.1089662   7.1893045
  14.1386576  56.8997634  11.5950244  13.4956070  56.5231000  12.2137655
  14.9760920  56.6815822  11.9722782  23.2536152  70.6989078  28.3234566
  23.6434628  71.1266001  29.1005818  22.3262050  70.5183659  28.6602913
   8.6728865  56.3322091  26.0690661   7.8079961  56.1198011  25.6046326
   8.4638986  57.2129004  26.4551348  14.0077449  62.3133784   9.9005447
  13.1292042  62.4469654  10.3642253  13.8784483  62.4861726   9.0186830
  74.2487173  62.7120180  22.6621344  74.9777439  62.6923718  22.0027881
  74.6261779  63.3147167  23.3263410  15.9378293  69.9513572  20.1739817
  16.2832200  70.7491513  20.6042616  15.6483373  70.2993833  19.3250200
  18.0130011  64.4964591   9.2315159  17.0108028  64.7048678   9.4425564
  17.8264134  63.7384599   8.6543690  15.9985379  64.8365055  20.8819242
  16.9768681  64.5527459  20.8849431  15.9644830  64.9920661  19.8765225
  60.8251664  31.0076792  71.7387702  61.7083589  30.7952454  71.4734435
  60.9008591  31.0610928  72.7733989  60.5299066  21.1092407  66.6434975
  61.0729859  21.8846200  66.6991345  59.6271440  21.4688935  66.4623534
  15.8708132  67.1469332  12.3022453  15.2926245  67.9593721  12.4206352
  16.0171652  67.2569954  11.3442254  53.2678086  23.6780181  79.1223326
  53.7470256  23.0516835  78.5632744  53.6360041  24.5294095  78.8803576
  18.8574966  65.4036530  30.1370519  19.1032079  64.5019085  29.7742148
  18.3217022  65.7254313  29.3697959  20.5470538  67.2233415  31.3144709
  20.0992063  66.4329446  30.9892680  21.2227947  67.3224711  30.5999482
  45.6498122   5.2718545  13.1798936  45.2828851   5.7322634  13.9845509
  46.4568892   4.9218529  13.5851200   7.0388514  61.4341344  14.0543028
   7.3801207  60.5826494  14.3324154   7.7950261  61.9055179  13.6751961
  15.4449408  65.2120651  15.4421264  15.8659433  66.0257386  15.8175111
  16.0040119  64.5429470  15.8944610  28.3429794  71.8216378  26.3600828
  28.3074729  71.9795328  25.3964645  27.4451074  72.2003216  26.6507027
  33.9241867  59.4046345  13.3264134  34.1312337  58.5391828  13.7994766
  34.1124335  59.1793185  12.4395269  41.3051321   5.1090262  12.4401063
  40.7948427   4.5620693  11.8260739  42.1934889   4.7896388  12.2337778
   8.7866502  64.2556759  17.6410593   8.9259129  65.1970536  17.9095046
   8.6920818  64.3908604  16.6829089  14.7359946  63.6922179  17.9236122
  15.2926598  63.0424587  18.3642649  13.8868009  63.5987282  18.4622641
  70.9261743  29.2386306  72.2508605  70.6909200  29.4409408  73.1331090
  71.4825648  28.4458631  72.3398714  13.2610408  61.1133647  12.9226264
  13.0310691  61.9391954  13.4408191  14.2531655  61.2304261  12.9483925
  22.6648517  68.8535426  10.0353600  22.5814924  69.8331656  10.0490222
  23.5161971  68.7184598   9.6053734  69.9230346  34.9373436  74.0831833
  70.8988889  34.7907260  74.1157809  69.8602598  35.5559038  74.8367723
  24.0098443  60.6090900  12.8291582  23.7369051  59.6803764  12.6473900
  24.0803982  60.5585365  13.8084020  34.3236258  63.4359205  11.0458857
  33.7270773  62.8285218  10.5123383  33.6849519  64.0714416  11.3032784
  23.5523818  59.8508199   5.2045004  24.1097608  59.3185121   4.5776173
  24.3271297  60.3765249   5.5614617  12.1895196  66.6806994  17.7544231
  11.6033253  67.4640976  17.7840376  12.2148337  66.4789874  16.7541187
  61.7285168  23.4599961  72.4836625  61.1247082  22.7936768  72.0547733
  61.1441241  24.2664468  72.3036036  17.2877241  59.1486562  19.5256143
  17.2157375  58.7910191  20.4021538  16.9544009  58.4067110  18.9647115
   2.5619575  52.6079008  17.5796499   2.6159822  51.5522844  17.4451373
   1.5770940  52.5685539  17.7051297  27.6618092  60.7333426  21.0950345
  27.2931593  59.8356634  21.0911893  27.9468597  60.8909515  21.9990144
  25.7472975  61.2157247   6.1838888  25.8485439  62.2005450   5.9776975
  25.1292435  61.3309059   7.0017833  13.4491995  69.1753680  29.6870871
  14.2258454  68.8226237  29.1835825  12.7226289  68.9646972  29.1098333
  18.4445815  59.0029687  13.5685966  19.1510048  59.3469402  13.0462945
  18.8276709  58.1642455  13.9271105  20.2478747  65.4949886  13.9059021
  20.4196162  64.6293382  13.5684917  20.6040103  66.0382090  13.1385558
  21.2127056  66.8517098  11.5586624  20.7732194  67.6796629  11.8507575
  21.8448675  67.2539359  10.9510425  65.2422926  30.5817676  73.3485513
  65.9169659  29.9484105  73.6242316  65.3895583  31.3281796  73.9837120
  22.4646025  62.8857228  15.1445147  22.3785294  63.4863161  15.9036278
  22.8359607  62.0779173  15.5704890  58.7480238  26.5573686  74.6899261
  57.8540495  26.9375981  74.6844587  58.5959539  25.7237653  75.2560579
  26.9332866  65.4348997  25.7556028  27.0069373  64.5466724  26.1265376
  26.0199367  65.4392776  25.4237138  19.3228002  53.5801452   3.7097740
  20.1066048  53.0631049   3.3670981  19.5427072  54.4837826   3.5453258
   5.6633616  60.5263084  25.6012115   5.2488539  61.2681324  26.0983607
   6.5687591  60.9283992  25.5582618  53.5446825   2.7869369  14.0195051
  53.1359100   3.4201325  13.3622683  54.0302255   2.2404000  13.3447771
  38.6244770  77.0265011  12.2871374  39.5533971  77.0708579  11.8986724
  38.6672059  76.0495710  12.4927317  26.4940539  63.2811372  20.3749033
  27.0341983  64.0053094  20.0425094  27.1276309  62.5262971  20.3004136
   9.3230858  37.0152530  71.8349291   8.6950787  37.1231701  72.5664057
   9.4515461  37.8795638  71.5020084  47.3402083  10.3209036  12.5355312
  47.0526001  10.6642261  11.6967718  47.4958290   9.3928139  12.2955435
  20.2443185  73.6030526  16.6166730  20.3395641  74.0646414  15.7811819
  20.9457558  73.8960784  17.1920865  32.9862632  66.2026197  12.8587472
  32.1496543  66.5483968  13.1832602  33.4923518  66.2430495  13.7441061
  34.0247871  79.5836392  11.7633664  33.5773174  80.4023221  12.0026801
  34.9230701  79.8735946  11.5180735  22.7239879  70.3384101  17.7009361
  22.9823773  71.1140584  17.0633412  23.3260740  69.6711468  17.3103808
  20.3659084  68.9944544  13.0959418  20.9418583  69.4981168  13.7200969
  20.0540133  69.8122676  12.5821901  67.2216044  34.9105720  65.0231486
  66.9258694  34.7576378  64.1161609  67.2408387  35.8963237  65.0715908
  23.0691855  58.1155467  12.1725917  23.8339677  57.6248703  12.4659161
  22.4792974  57.4310530  11.7911713  55.3391235   5.7020815  19.8443270
  56.2476770   5.3785715  20.0458254  54.8362195   5.1883453  20.5253690
  18.9962656  67.5760679  18.5266494  19.6021091  68.1115601  17.9533822
  19.5472969  66.7600200  18.6318851  43.2999442   2.5259283  12.7662424
  42.5970161   3.0801332  13.2189294  42.8315130   1.6460724  12.8109495
  13.4272424  32.5963983  69.7860151  13.1476163  31.8922510  69.1695324
  14.1138003  33.0351860  69.2075250  23.3314395  74.1829583  14.1200500
  22.4088173  74.0400624  13.8788632  23.3886585  75.1147606  14.2652843
  42.0284085  81.9252510  16.6263033  41.9288174  81.7387532  15.6622116
  42.0992123  80.9873274  16.9190773  23.7447908  63.9153348  10.4805495
  22.8473210  64.0383808  10.1996061  23.7399860  64.1522841  11.4455408
  20.7788376  35.1126724   2.3713014  21.6552461  34.9266583   2.6790873
  20.4089676  34.2150543   2.2196875  61.8352318  10.0921847  66.6567715
  62.0834579  10.3705615  65.7544423  60.9166139  10.4911105  66.6946321
  31.2743478  56.5471497  70.8565866  31.1579513  57.4266829  70.3828439
  32.1805891  56.7249116  71.1825334  30.3519027  64.1534192  67.6040744
  31.2631407  63.7413822  67.5476444  30.5943159  64.9397395  68.1045766
  11.5975827  45.5104938   4.4121147  11.0128648  45.6840865   5.1357469
  10.9244432  45.3681001   3.7080060  11.1694004  33.1896775   7.7821225
  10.9865970  34.1449288   7.5726545  11.4824247  32.9557584   6.8450482
  65.7541731   8.7035069  64.9506595  66.7534414   8.8386031  64.9905118
  65.7952788   7.7036766  65.0241556  30.2859774  66.0312324  69.6685126
  31.1606670  66.3874066  69.9071302  29.7015683  66.7597255  69.8270528
  31.0697779  70.3779909  68.7211540  30.9133350  70.9652086  67.9364585
  31.0806722  69.5195927  68.2636819   7.0110097  32.3001195  15.9170238
   7.3046414  31.4039562  16.1342701   6.8055543  32.6268807  16.8180081
  38.0994184  74.8597073  65.4849146  38.6863023  74.0613703  65.3670682
  38.3589771  75.1661564  66.3767537   6.0968552  65.8727107  18.0180695
   5.6437613  65.8950034  18.8836317   7.0180692  66.1201920  18.3024645
   9.8024174  41.5820187   3.3284689  10.8065624  41.6315982   3.3589030
   9.6222387  41.9396990   4.2187999  22.8783358  22.6688743  14.1924519
  22.0331382  22.9113149  13.7823384  23.1641502  21.8987266  13.6311462
  13.4519275  28.2707398  10.4221293  14.2924754  27.7300816  10.3540972
  12.8819074  27.5785249  10.8761892   5.4896823  32.3915242  11.4554718
   5.6831584  31.5225601  11.7223776   5.3648528  32.2959044  10.4858102
  13.9153338  24.6385048  14.9606878  13.5432145  25.2135266  15.6418391
  14.2170088  23.8850536  15.5099310  15.0131299  58.4706076  67.8478489
  15.6133348  57.8033809  68.1948567  14.1921463  58.3073379  68.4189638
   7.3641136  40.7031215   4.9963756   7.8358926  40.3446879   5.8094547
   6.7985239  41.4034525   5.3976178  16.4152852  40.8706588   4.8878352
  16.1444424  40.8730653   3.9712878  16.2474147  39.9428000   5.1568610
  17.2229822  46.7878074   5.8646382  16.4079111  47.1081487   6.2730730
  17.5142704  46.1618233   6.5534601  22.9204989  43.5687317   4.1367693
  22.4167429  43.4664075   4.9670690  22.8687517  44.5539742   4.0626557
  18.4670541  53.9138282  15.2531346  18.8785139  53.0680038  15.3802878
  18.6909187  54.3773175  16.0153737  25.5787968  49.1720943  -7.7380581
  25.5570068  48.8396787  -8.6725692  26.1131284  49.9821294  -7.8813858
  26.6889768  49.5027207   1.7506917  26.8713447  50.2129444   2.3968041
  27.1243510  48.7104774   2.1320613  49.3908908  66.4673165  67.7868261
  49.6227999  65.7007205  68.3810985  48.7703852  66.9494479  68.4092297
  23.8239429  39.7322253  -1.5376156  23.1590835  40.0938364  -0.9483093
  24.6292569  40.2236896  -1.2771077  23.7931141  54.3312207  -2.0818501
  23.8325551  53.5440564  -1.4732608  22.9933279  54.1192403  -2.5499548
  24.4416493  44.2757419   1.6035303  24.0216766  43.9325872   0.8077045
  24.1948374  43.6940554   2.3510746  15.1815916  52.3331192   6.7657037
  15.6098127  51.6440835   7.3119440  15.8104543  52.3193958   5.9481122
  14.0087750  31.1423002  14.9953251  13.5691480  30.7248869  14.2615651
  14.8430787  31.4466613  14.5563418  11.7925896  49.7391937  12.1001539
  11.9542211  49.1891268  12.8866394  12.1010947  50.6173028  12.4263593
  10.7434759  51.2042175  10.0024025  10.7861698  50.6598437  10.8081543
  11.6682265  51.1963751   9.6884398  57.4773498   9.6729910  62.4902084
  56.5980128   9.9630594  62.1793671  57.9593434  10.5454714  62.1549968
  73.1896596  25.1583429  61.0178960  73.6606133  24.2794807  61.0924708
  72.3704094  24.8974322  60.4922257  76.8505498  11.8830911  48.4003031
  77.2529600  11.0854615  48.7852669  76.8055745  12.4699303  49.2003630
  15.9890476  50.3469753   8.3917584  15.6989725  49.7104181   7.7093037
  16.7973397  49.9241235   8.6995081  52.3545873  77.0377193  56.5657995
  52.3502669  76.6330336  55.6645263  52.4668418  76.3333593  57.1282737
  40.1202473  77.4806235  63.0694307  40.3476677  76.6413266  62.6470152
  40.3868283  78.1288077  62.3649780  16.1123398  46.0423659  10.2005151
  16.2050891  45.1609908   9.8291031  15.1426518  46.0011084  10.5307438
  61.4151628  17.0031179  72.0076852  60.8336909  16.4467123  71.4307324
  62.0117746  16.2839002  72.3535142  63.2761835  20.9110374  60.6187247
  62.7061644  21.6798827  60.3101829  63.8057642  21.3193035  61.3309360
  75.6784143  16.8163181  51.2371200  76.1812756  17.6460662  51.5562201
  74.8347520  17.2861618  51.0228568  34.1637762  71.0135610  69.9255550
  33.9653450  70.3019434  69.3231837  33.2800611  71.3775915  70.0988387
  27.1994549  74.4072273  67.6782874  27.4828180  73.7496417  68.3591346
  27.2935654  73.8224699  66.8746404  13.0868367  63.2568765  14.3099653
  12.3742385  63.3247621  14.9447786  13.7674615  63.8080953  14.6735615
  21.6367831  48.2343417   5.5759047  20.8027194  47.7168081   5.3706309
  21.4218500  49.0409793   5.0181850  17.0418328  57.0233023  17.9863285
  17.8639594  56.7765650  17.5734584  16.3654752  56.5933524  17.3757044
  14.4949380  51.8514064   2.4654227  14.3221661  50.9554737   2.8472061
  13.7778324  52.3619243   2.9352290  24.1014474  47.4792678  -5.3227781
  23.2409899  47.9023550  -5.4438048  24.5671050  48.3373143  -5.0025443
  27.3457704  27.5437225   7.5858714  26.8724009  28.3828884   7.6552500
  26.6302148  27.0337174   7.0425768  17.5212619  44.4289011  -0.7475433
  16.6403163  44.5144605  -1.2153387  17.9394834  43.8805799  -1.4451461
  21.8716461  47.1947080  -2.2628883  22.5994269  47.2428457  -1.6067740
  21.5020392  48.0724097  -2.1695750  37.3981738  72.8590501  53.1598522
  37.0976053  73.5732453  53.7336194  37.4531485  72.0817103  53.7920002
  28.2129349  35.6888718   1.7054222  28.7654322  36.3798916   2.1059233
  28.4579416  35.7205806   0.7611568  46.3792320  70.2046407  66.5053117
  46.8257120  69.7018616  65.8012417  46.1907213  69.4253652  67.1100969
  41.9522589  78.7989576  58.7544071  42.1646544  77.9546940  59.2230130
  42.7557705  78.8755896  58.1667241  19.0775122  52.1099195   6.1758445
  18.9361603  53.0636724   6.0954059  19.3054910  51.8102112   5.3101646
  72.8852591  14.7911944  63.1533929  73.1531900  15.3240595  63.9560088
  73.2682318  15.4221473  62.4927404  15.1389163  68.6540613  61.8593064
  14.3500812  69.1281320  62.2431596  15.2169135  69.1597627  61.0066725
  27.7524805  48.3813361  -6.4285853  26.8065185  48.2117239  -6.7323575
  28.2203474  47.7867898  -7.0884224  56.1190664  31.4827832  81.7784100
  56.0606811  31.7949076  82.6514143  55.1728850  31.4188601  81.5158449
  13.8618063  39.4911045   4.1567836  13.2775938  40.3040921   4.0851558
  14.0079277  39.3287156   3.1823225  14.1672691  47.7661155   3.8664606
  14.4283426  46.8313240   4.1164574  13.3033903  47.5705424   3.4481490
  15.6195905  43.8403371   8.7293544  14.8220424  44.2318047   8.3757002
  15.6090663  42.9245639   8.3702899  22.3381017  46.4650375   9.2564650
  21.7179913  47.2363827   9.1572069  22.2670619  46.0546127   8.3756611
  63.0367816  11.5478343  58.1087775  63.5643946  11.7095468  57.2628878
  62.3384714  10.9451852  57.7467061   2.4913878  46.5401692  11.2086021
   2.4835194  45.5472125  11.2163605   3.2855452  46.6868846  11.8019895
  63.6021552  12.5645683  68.1825022  62.8025962  12.5444894  67.6208214
  64.1441771  11.8561633  67.7385682  24.9249898  49.8573187  -4.5618176
  24.8650751  50.0389559  -3.5509079  24.0171605  50.0698641  -4.7556746
  13.4027853  44.9711576   7.6710956  13.1909653  45.9211916   7.6254502
  12.5296306  44.6352557   7.9938650   8.4097755  52.4622175  11.1872314
   9.1527527  52.9572040  10.7196007   7.9720747  53.2518446  11.6109341
  43.0337812  76.1056496  62.5920299  42.8502465  76.1286829  61.5520233
  42.4103282  75.4151573  62.8449634  29.6088120  47.0325138  -8.3540982
  29.6207137  46.0701768  -8.5133206  29.8929212  47.3101154  -9.3079938
  17.1306073  53.9822990   7.7708781  16.8058690  54.9077519   7.6435540
  16.4568264  53.4293441   7.4594050  74.9218551  23.2105619  61.2473015
  75.0238795  22.9591714  60.2994587  75.6839923  23.8385110  61.3237034
  18.1848660  32.0941720   6.2583575  18.6852027  31.4141275   5.7778221
  18.7919176  32.3655839   6.9740739  18.4508657  51.4136707  12.2362383
  19.1573585  51.1210455  12.8166775  18.2324759  50.6214910  11.7855400
   7.7419069  46.2380146   8.3373107   7.9612136  47.1689974   8.5327864
   8.2667944  45.7569694   9.0125125   3.4772634  29.5595536  20.1193310
   4.0915770  28.9816658  19.7010495   3.9147588  30.4507945  19.8323487
   1.3736666  48.4880037  15.3834140   1.9072039  47.5985380  15.4076518
   1.1065242  48.4296817  14.4255863  16.3733470  49.5151521   3.9639010
  16.4689835  49.5294883   4.9120133  15.6891366  48.8720241   3.7611682
  33.7467019  62.5165018   7.2653589  33.7339707  63.4636498   7.5479948
  32.9789041  62.1968213   7.7389207   0.1617889  33.6635332  11.4864081
   0.3353957  33.9571999  12.4382069   0.7099239  34.3551584  11.0386181
  66.4869597  15.9913382  63.2747396  65.9298393  15.5339514  63.9106090
  67.0424914  16.5526055  63.8417966  62.2945359   5.6149120  63.3540501
  62.7710835   6.4870394  63.5400985  62.6947170   5.1387052  64.1696168
  20.6686778  32.3532320   8.9741994  20.8630490  33.1821422   9.4187018
  20.7565052  31.7061838   9.7156374  21.0082755  42.9045375   1.5628719
  20.8067134  43.4391009   2.3652033  21.3146473  43.5366064   0.9371946
  17.9912109  36.8064363   4.2747345  17.9102190  35.8562861   4.5939997
  17.4759386  37.2196461   5.0389614  59.6880687  65.7307019  59.0170077
  59.5562129  66.4271181  58.3297389  60.5446352  65.3389585  58.7532959
  38.1492018  70.5404148  70.1046102  37.4000942  71.0264189  69.7781539
  38.6396693  70.3398388  69.2661929  69.0745174  22.4488647  68.0725888
  69.9607436  22.4158201  68.5356008  69.4311918  22.6450404  67.1403689
  22.1257227  46.6059940   1.9180273  22.6547555  46.1100325   1.3102965
  21.3480049  46.9168400   1.3977984  60.4259956  11.4232626  70.0158920
  60.7268664  12.1733435  70.6521228  61.0260712  10.7328802  70.3975248
  31.5622699  50.6764772  -2.0578895  31.2886088  51.4767756  -2.6388672
  32.5180136  50.7569031  -2.2534354  67.7677810  12.4002278  64.8079008
  68.4559280  13.0506869  64.9699727  68.0115749  12.1006772  63.8984398
  67.4431116  18.2268951  68.1264768  68.3460909  18.4909280  67.9715041
  67.1552660  18.8100144  68.8476983  66.6405636  19.2020997  55.3080584
  66.7609683  20.1545737  55.6126455  65.6459625  19.2880765  55.2392398
  74.6639884  16.1608433  61.0122902  73.9961717  16.6062553  60.4365363
  75.2872308  15.8103182  60.2831615  15.2749985  41.5207969   7.3325923
  15.6149662  41.1879150   6.4814698  14.3443431  41.7416482   7.1232669
  43.6557664  78.8518387  63.1237178  42.9936675  79.5540661  63.2103761
  43.0193313  78.1189953  62.9956080  25.6756732  25.0176187   9.4628716
  26.4295799  25.2426287  10.0942509  25.2166081  25.8913505   9.4888240
  28.3502914  41.5544676  -0.6430413  27.4277571  41.8816607  -0.8697531
  28.8356269  42.2961811  -1.1144539  25.8805509  29.8397314   8.2595742
  25.1258045  30.4382073   8.4610195  26.6092754  30.2842095   8.7150480
  31.1530162  33.5658730   0.8786016  30.4510589  32.9645607   0.7611870
  31.9177492  33.1592325   0.4574078   9.9713243  48.2670390   6.4983825
   9.4134155  48.7064622   7.1439542  10.4942636  49.0249813   6.1164231
  15.9908945  38.0109765   6.1464976  15.5776335  37.4152891   6.8494131
  15.1336658  38.3885911   5.8842438   7.3877939  54.3180812  16.7114714
   8.0971851  53.7670831  16.2429687   6.6723162  54.2144314  15.9962396
  66.0772916  22.1250566  73.0047091  65.4129046  21.5540135  72.5979769
  65.9309650  21.9010179  73.9505537  18.6048794  48.4165952   2.7912342
  17.8170927  48.7552830   3.2426168  18.9072075  47.7324075   3.4040336
  53.6383312  81.5381782  57.1633075  54.4081880  82.1175360  57.2994384
  52.8958812  82.1505392  57.5201450  20.7066696  49.8886057  -2.2741634
  20.3596426  49.7960876  -3.1813953  20.3450772  50.7167750  -1.9944882
  31.3825939  47.8067603   3.5366438  30.6324427  47.5377277   4.1260527
  31.0060188  48.5696856   3.1501038  19.5353149  44.3558140   3.7939189
  19.4015311  43.4776245   4.2392944  18.6818167  44.4062362   3.2974161
  16.8092716  60.6250904  15.4019535  17.4589346  61.2348842  15.7128500
  17.3579979  60.0099640  14.8251723   8.5186852  48.4791560   9.3786064
   8.3411241  49.4273099   9.2101929   8.5017159  48.4383800  10.3461669
  79.4434060  22.4944139  60.8366456  80.0450858  21.7520971  61.0637545
  78.6789302  22.2408945  61.3959436   4.8732580  14.1544665  58.9864138
   4.7164003  14.0593907  58.0262813   4.3964152  13.3857757  59.3380944
   2.4667641  21.9856955  53.9210787   1.9484466  22.6344291  53.3475790
   1.7685870  21.3858294  54.1323401  20.0555833  62.4983187  13.9505209
  20.1794500  61.6445996  13.4698512  20.9789401  62.5669369  14.3023815
  77.3438639  23.7209212  48.4344673  76.8529605  24.3915605  48.9907313
  77.5017200  24.2268819  47.6237300  38.8980322  63.5925222   9.0796481
  38.6667799  62.6489483   9.1059556  38.1690028  63.9179779   9.6713829
  32.9285845  62.8858741   3.7226805  32.3772698  62.1002197   3.8667955
  33.5591428  62.8124548   4.4861823   6.5416665  30.2128348  68.9637024
   7.0301084  30.0595127  69.7993089   6.0542245  29.4107334  68.9088157
   9.7154089  20.7626343  63.3020025   9.6042694  20.8464483  64.2614791
  10.6496744  20.3992105  63.3185397  29.6009926  56.7637634   2.3060355
  28.9904694  57.5255792   2.3968445  29.1327440  56.2224314   1.6525304
  15.2381271  46.5429749  -0.4190692  15.8100811  46.3990248   0.3742779
  15.6764168  47.2240640  -0.8954641  33.9734473  50.1552408   5.9374599
  34.2369828  50.2540469   6.9234460  33.5958979  49.2158118   6.0699433
  29.5541372  59.3470971   6.9744775  29.4159112  58.4035575   6.7256592
  28.8470776  59.8081328   6.5049491  16.5176761  31.8301321  72.9067603
  15.8902604  31.1415735  73.2154056  16.5141234  31.6553120  71.9803635
  29.1685477  67.6643004   9.1110305  30.0020331  68.1584345   9.3361689
  29.2067829  66.9333371   9.7856842  72.9491961  16.1847161  57.6616344
  73.7108523  15.7651208  58.0597690  72.4310885  15.4141171  57.3927132
  25.5256319  46.4606415  -1.4939056  25.1139805  46.0429287  -2.3193260
  26.4215580  46.6801250  -1.9033657  13.1516659  32.9553069  66.4067384
  13.3922271  32.0392405  66.5327410  12.1945498  32.9131395  66.3100287
  69.1201402  18.4851868  54.6893671  68.1280309  18.5710383  54.7206160
  69.1820173  17.8825271  53.9019621   9.4249577  25.0058792  58.6111898
   8.9196470  24.2418222  58.3444007   9.0013747  25.7613619  58.2304657
  26.6940744  58.8419342   0.7208909  27.3924814  58.4102983   0.1626420
  27.2190928  59.2865442   1.3894590   5.4668157  32.6986037  69.3013167
   5.8819333  33.1580564  68.5261946   5.6735029  31.7673254  69.0924581
  21.0161332  48.4249803   8.3723829  21.2705517  48.4714017   7.4151370
  20.7037968  49.3276646   8.5200107  16.3856427  56.8945379   7.4614980
  16.0353456  57.4574931   6.7324057  16.7720051  57.5623232   8.0611189
  24.0616430  62.1214128   8.1419240  23.8253138  62.0624652   9.0400432
  24.3736043  63.0359868   8.0128352  21.1662105  62.4336059   5.7249129
  21.7856073  62.9824559   5.1787350  21.6247955  62.5579044   6.5559325
  10.1858428  34.3164843  71.5367287   9.2952144  33.9897280  71.3770862
  10.0518059  35.2713820  71.7248823   4.7928811  21.2739412  62.6750743
   5.4958484  21.5330638  63.3304169   4.5001914  22.2249885  62.4868213
  27.4729387  51.2225537  -5.5055400  28.1204387  50.5529756  -5.4873955
  26.6879888  50.6833752  -5.1052593  52.2729008  86.0584925  54.6260495
  51.8262367  85.9680938  53.7625050  52.7661107  85.2493337  54.7740435
  24.9562856  59.0236281   3.0137531  24.8065737  59.9855836   2.8691362
  25.5273834  58.8755474   2.2120432   6.3512447  18.4464559  61.3717937
   6.3101919  19.3747453  61.3249091   6.0758279  18.1485256  60.4921830
  36.6781916  55.6353382   6.8669967  37.3274590  56.4104094   6.9519644
  37.1469736  55.2228461   6.1148475  73.8119619  13.1826320  48.5520279
  72.8486992  13.1943254  48.3019974  73.7093164  12.6736345  49.4295500
   5.6796918   7.7622670  53.1172595   5.9384516   6.8616400  53.1567132
   6.4947683   8.2508490  53.3423666  20.6581808  61.8598298  10.4017683
  20.4963510  62.7907101  10.8238750  19.7902220  61.8436322   9.9095779
  23.4400941  52.2391459  -0.5423531  23.6807024  52.3502510   0.3844112
  22.5695126  51.9004719  -0.4699657  41.5591951  81.1509604  62.9556783
  40.8300673  81.1142030  63.6030168  41.1832802  80.5104046  62.2940911
  34.6274819  54.6372427  -2.3342403  35.2122454  55.3586712  -2.0749572
  33.8968603  55.1585056  -2.7608914  24.4694421  61.7452109   2.6368978
  24.0544236  62.5285972   3.0934838  24.3912699  62.0326220   1.6981268
  18.1299465  53.5868302   0.5971005  18.0264818  52.7629593   1.1468141
  19.1114579  53.4996387   0.4789577  29.6932337  59.6941205  16.3117098
  30.1473955  60.5375962  16.1210223  30.3759325  59.1045723  16.5988636
  72.6365908  31.5967175  57.9325758  73.3478921  32.0678875  57.4548956
  72.2260108  32.3527156  58.4049716  23.0524589  46.2469311   4.3793992
  22.6297410  46.4206719   3.4781579  22.5804767  46.9181350   4.8988053
  76.1001542  28.2091467  61.6049696  75.3286348  28.0243894  62.0677085
  75.8889004  29.0630902  61.1894897  26.9017514  53.5882550   9.2628141
  26.0680414  53.1452102   9.1769436  26.7035852  54.4779844   9.5631717
  31.3780354  68.6664341  15.2681168  32.2790022  68.9141604  15.4625657
  31.0608345  68.4452438  16.2004613  24.8609028  53.2935111   1.4648860
  24.7229550  52.5229480   2.0436985  25.4249271  53.8576893   1.9585438
  23.7496851  64.6670847   6.6060611  23.4355654  64.4530779   5.7310655
  23.3044840  65.4785225   6.8361067  76.6570043  25.3574923  61.3645840
  77.5952602  25.2741737  61.3270870  76.5967784  26.2401746  61.8213741
  75.9360884  33.6685207  67.5897013  76.9178959  33.4616410  67.3862275
  75.9318815  33.3450505  68.5061126  22.3925014  58.6226519   7.5172054
  22.6216484  59.4006871   6.9162728  21.4762785  58.8453358   7.7438269
  19.5263181  56.5897162   2.9754943  20.4316181  56.9194878   2.6585247
  19.6347218  56.7920674   3.9311164  66.3252579  22.0557021  67.3464166
  67.2705792  22.2140216  67.4871439  65.9504338  22.5486826  68.1084386
  35.8264674  49.0515077   1.5162154  36.0775889  48.3821671   0.8764412
  34.8739981  49.0681136   1.3896234  31.3583386  54.3572335  -1.2530812
  32.0879505  54.7289730  -1.7265406  30.9338950  53.7991926  -1.9235183
   6.1845130  40.5468323  61.6961474   6.2027726  39.6625754  61.2626864
   7.1626948  40.7496672  61.6962747  73.1527351  22.4676082  63.1758755
  72.9075392  21.5713991  62.9247962  73.8774499  22.6715484  62.5365629
  26.7470599  51.4297141   4.5541785  26.9076920  51.9399435   5.4105175
  27.3070769  52.0424896   3.9779430  28.1828952  68.1811414  12.4439122
  28.6872267  68.8219223  11.8635163  28.9259576  67.8771610  13.0014061
  19.9525811  57.7050615   5.5794158  19.6653518  58.2312218   6.4036804
  20.9015160  57.6461650   5.7559146  28.6729622  52.9969412   2.9127666
  29.1261918  53.7476637   2.4422782  27.8275902  53.5174697   3.1786993
  65.2030616  26.8188853  72.8536190  64.7623116  26.0994362  72.3921840
  64.4038263  27.4058717  73.0300534  21.2152730  60.7891784   3.7203037
  22.0363746  60.3137297   4.1361935  21.1350536  61.3765851   4.5706226
  77.2240808  25.1492158  65.2907857  76.8202878  26.0650005  65.1756004
  78.1385010  25.3655881  64.8994239  27.2057989  51.4408747  -0.0399283
  27.1013073  50.5723050   0.4484487  28.2240947  51.4864022   0.0141376
  19.6330998  55.1333002   7.1991139  18.7980768  55.2941634   7.6232249
  19.5730122  55.6003515   6.3577821  24.2938079  48.3292068   6.1706493
  23.3687206  48.2983574   6.4822406  24.2220011  48.2022498   5.2316193
  29.4878076  61.5880975   1.9860678  28.9275136  62.2582783   2.4461058
  30.3803385  61.9380895   2.2058987  31.8425268  46.1872662  -2.6319924
  32.3573515  46.0024787  -1.8455870  31.3986848  47.0257333  -2.4236441
  28.7228290  43.6843511   1.6237109  28.1780186  44.3970372   1.1789560
  28.2660906  42.8564435   1.2844588  61.9159730  26.2265086  65.1774810
  62.2881138  26.7829006  65.8727491  61.0824536  26.7113057  65.0135593
  28.0003547  66.9653945   6.7263163  28.3826621  67.0441433   7.6480937
  28.7017257  66.4142298   6.2892208   0.0827415  25.4746887  63.7872654
   0.9777255  25.1344995  63.9292373   0.1413604  25.6194494  62.7818811
   9.7562246  29.7706795  66.5362040   9.9678991  29.5409091  67.4746979
   9.1442384  30.5364749  66.6868997  21.9297180  74.8537411  18.5879794
  22.2768612  74.1287713  19.1121173  22.7422620  74.9882680  18.0187735
  30.3686540  66.9894690  13.4764861  30.8454016  67.6490930  13.9959586
  30.1415625  66.3451014  14.1960897  23.7407289  64.4704026  13.2329488
  23.3597826  63.8721859  13.9294132  24.3201912  65.0004695  13.7776324
  38.3801776  65.4591741  15.3858334  37.4380377  65.2064355  15.2062902
  38.5194571  66.1858841  14.7316410  26.0473499  65.3073084   3.3390166
  25.1560730  64.9645461   3.5556061  25.9267567  66.2631029   3.4362769
  33.8353488  52.6990802  -0.7274924  34.1134303  51.8575600  -1.2505061
  34.0225490  53.3670831  -1.3851048   4.0327569  10.9304717  54.6049381
   3.8786547  11.5216712  53.9045130   5.0129786  10.8132352  54.5747903
  28.8308804  55.4566384  -0.1299380  27.9932596  55.0086011  -0.4111989
  29.4588273  54.7286930  -0.3784083  64.4969805  24.1649683  71.8936264
  63.6058816  23.8471705  72.2364850  65.0586761  23.5593193  72.4248771
  35.0866502  60.7555557   5.7406061  34.4695028  61.2799764   6.3239144
  35.7514974  61.3983655   5.4653370  28.4710587  63.7212340   7.8191863
  28.2434695  62.9634485   8.3753041  27.6409838  63.7733878   7.2392313
  29.9415047  56.7347281  -2.9758643  30.6501094  56.1216394  -2.8500838
  30.4391245  57.6044939  -2.9444168  31.6934122  59.0144546   8.8527809
  31.5982446  59.3198593   7.8790780  31.0644932  58.2828651   8.8709641
  10.5306248  26.1717416  67.8308800   9.7103213  26.3745375  67.3706272
  11.0316996  26.9595217  67.7276294  65.3401363  25.5962614  67.9621864
  65.2101917  24.8922740  68.6318284  64.5840142  26.1556996  68.1771745
  21.6243816  52.1272283   2.0872259  22.3678910  52.1785295   2.7442345
  21.8621871  51.2525058   1.6686482  75.4385361  12.7755757  59.6603991
  75.7014663  13.7114361  59.5253590  74.6392917  12.8787302  60.1981273
  78.1895880  38.6352045  65.3492617  78.4943139  37.7520639  64.8430735
  78.9951050  39.1566627  65.1184391  39.4653752  50.7397013   3.4330522
  39.8476232  51.5860456   3.8177732  38.8917912  51.1352850   2.7260657
  25.5615906  41.2126861  -3.7899819  25.0469614  41.5556711  -4.5246980
  26.4315383  41.1601040  -4.2087776   7.6524596  25.3193960  64.1110619
   8.2431463  25.2268530  63.3376074   7.7019688  26.3213892  64.1335370
  19.6450702  59.1974546   7.9389942  19.4549776  60.1576550   7.8837224
  18.9907190  58.9319824   8.5927409  32.2578356  57.0374950   1.5141389
  31.2364021  57.1309941   1.6493818  32.2297550  56.0366696   1.4679072
   9.0143797  15.2712633  60.6065462   8.6075265  15.9736074  61.2232762
   9.5401418  15.8933500  60.1009675  35.9264433  52.0411198   4.2035093
  36.2029915  52.9265382   4.5233647  36.0815255  51.4592624   4.9745333
  63.6851183  20.1963950  68.6898412  63.3694082  21.0913413  68.8755265
  62.8750303  19.7267885  68.5762295  24.1439691  51.5322090   3.3251131
  23.8015193  50.6508733   3.0383898  24.8617377  51.2161886   3.9533338
   6.6322740  14.4939680  55.7469001   7.4022687  13.9158842  56.1037854
   6.7004927  15.1313331  56.5203087  19.1483559  61.4100630  21.2427930
  19.2852743  60.9184974  22.1700944  19.7215027  60.8467973  20.7160306
  27.5056046  71.9785755  11.6079864  28.2861609  71.8358627  12.2243560
  26.7552403  71.9824309  12.2637847  27.1742657  69.4680873   8.9803970
  26.4648640  68.9419073   8.6463027  27.8569522  68.7189846   9.0995973
  74.4694554  37.6048903  72.0851864  74.4380592  38.2183429  71.2876778
  75.3422517  37.8800353  72.4368414  43.3028866  79.8993271  18.1854773
  43.7079430  79.6835274  19.0203566  44.0455223  80.0591737  17.5886730
   1.5142536  36.2664411  70.5079545   1.0708219  35.8272865  69.7811552
   2.0232617  35.4801059  70.8759254   3.2712362  29.0441840  61.0225505
   3.4103397  29.0853324  60.0401976   2.3282954  28.8073804  61.0400925
  19.1024066  39.3742626  72.6567814  18.4473778  38.6410484  72.8709485
  18.9136982  39.5004827  71.6869428  30.1106041  62.1499512  10.7823923
  29.5597055  61.9152304  11.5302372  29.4905593  61.9064861  10.0295060
  50.2644797   4.1978706  11.3912563  49.4701313   3.5488892  11.4706007
  50.8709341   3.5781445  10.8720924  74.6324085  39.3637399  70.2625416
  74.3773294  40.1238769  70.7685348  74.3532095  39.6247581  69.3337246
  17.6289474  38.4958541  70.1636853  18.2048844  37.7413951  69.8354517
  16.8231497  37.9818923  70.3528351  73.4764903  34.9956051  71.8321794
  73.8260362  35.9344554  71.9552443  73.0103847  35.1989945  70.9468494
   3.3810710  38.7963308  64.6858160   3.3855601  37.8372960  64.4972555
   4.2598436  39.0626883  64.3662484  21.9465910  74.1537553   9.5804908
  21.5591452  74.7929212   8.9542011  22.7862202  74.6281431   9.8145838
  35.9130518  64.3611475  14.5405482  35.8772346  63.7310410  13.7816686
  36.0301114  63.7332173  15.2891821  26.3059222  69.0896729  14.6096104
  26.0268929  69.7134930  13.8613844  26.8820724  68.4780159  14.0965568
  41.2970351  71.7445134  12.1558596  42.2776990  71.8448319  12.1586867
  41.0492152  72.6333112  12.5086354  73.2542610  39.7445382  74.7931645
  73.8698911  40.4114312  74.4008310  72.6341326  40.3882757  75.2426400
  35.0001018  72.6802909  14.7641190  34.7984095  73.4126038  14.1813823
  34.6915842  71.8904768  14.2871348  56.6310555  72.4959282  59.3151525
  56.2329906  73.3457859  58.9708885  55.8149742  72.0205665  59.5780716
  56.1068607  81.8550249  55.6148164  56.7281364  81.4010855  54.9780143
  56.1526691  81.1200696  56.3173682  46.1724747  78.9492789  53.2011033
  46.6670384  78.9865324  52.4015794  45.4473300  79.5657202  53.0381042
  45.6847118  75.4352908  61.8585043  46.4497349  75.9638836  62.0730742
  44.9680410  75.9942763  62.2644376  12.5279017   8.0682212  49.0312790
  12.8536274   7.4459908  48.3405364  11.5927798   7.8069629  49.0288680
  51.6479567  75.9666421  61.0506751  52.0386625  76.8323358  61.3542362
  50.6745871  76.2702719  61.0971081  24.4956624  45.1825970  -3.8014712
  24.0241097  44.5170070  -4.3686928  24.1085174  45.9897231  -4.1044149
  32.9556864  40.4316717  -3.4075425  32.6644750  39.4578960  -3.3911783
  33.7735134  40.3569036  -3.9020795  72.8984585  15.0502607  53.7864952
  72.9587490  15.7349797  54.4287064  73.8378054  14.7659651  53.7272153
  24.9078374  50.3469974  -1.8771667  24.1627953  50.8497490  -1.5079663
  25.6790357  50.7551428  -1.4262519  26.4223173  54.5546026   3.5641240
  26.6892022  55.4275158   3.8488517  25.7140660  54.3187812   4.1594368
   5.0206520  17.6529773  54.5142557   4.7301733  18.2015017  53.7683125
   5.0099081  16.7396456  54.1446704  22.3516528  42.6909172  -3.3698239
  21.8965847  41.8672437  -3.7881753  22.8834937  42.9583231  -4.1453192
  27.8665996  39.5174229  -2.2472028  28.2114481  40.1024920  -1.5386922
  28.5000954  39.8005604  -2.9816145  59.9818065  70.4826048  56.1893964
  59.2243302  70.5915109  56.8569983  60.5192370  69.8211127  56.6676186
  36.3857604  46.0497026  -2.6657790  35.5859640  46.5027639  -2.9894806
  37.0239858  46.1601460  -3.4165702  42.2938356  81.1675109  56.7258890
  43.1353021  80.6745561  56.7112133  42.4750635  81.7050732  57.5646727
  44.9648335  81.0515510  60.0691248  45.3750887  80.7353626  60.9551595
  45.1656839  80.1781572  59.5797709  29.5729728  31.9832627   5.5559574
  30.3819875  32.3156612   5.1412086  29.1644571  31.5240110   4.7807131
  53.7140425  77.7786039  50.9430254  54.6558301  78.0632241  50.7801848
  53.5224347  77.2472873  50.1699379  35.3322941  46.7184901   7.6721349
  36.2558632  46.9424481   7.6633938  35.0773582  47.0467669   8.5518515
  50.5389462  75.1492631  51.5762652  49.7772141  74.5771515  51.4333079
  50.5193176  75.3541416  52.4963808  38.8207227  44.0478127  -5.8332971
  38.5642417  44.8800789  -5.4000188  39.7221309  43.9466137  -5.4560971
  14.2034166  14.6583504  57.8797799  14.2648679  13.8362952  57.4165945
  13.3929329  15.0588607  57.5195292  56.7685818  77.0963880  57.5302863
  56.3116153  76.9966735  56.6678918  56.1438821  76.6674797  58.1483436
   8.3729856   6.5055803  54.7325452   8.5491739   5.8817306  54.0386907
   9.1843375   6.5099520  55.2760754   7.5608034  13.9465806  52.1417331
   7.8401498  12.9808609  52.0761408   7.5464407  14.0723544  51.1387742
  37.8001494  43.6448875   4.3745793  38.3574846  43.2710291   5.1106847
  37.0629768  44.0377761   4.8713239  57.0172145  77.3109194  53.3593960
  57.1349239  76.4885455  52.9131118  56.3478688  77.0978972  54.0481296
  31.7188734  47.3054188  -6.7339838  30.9983482  47.5138320  -7.3835212
  31.4061648  46.4634571  -6.4115941  29.6698792  50.3015279   2.9287823
  29.2057885  51.1181406   2.7807330  29.4816035  50.1954214   3.8876464
  78.6904302  16.8549797  59.0315185  78.3181571  17.7123190  59.0515810
  79.6288587  17.0131885  58.8122153  35.7184059  44.9164253   5.4478743
  35.5229209  45.3523776   6.3295766  35.3268003  45.5977535   4.8432876
  69.5225222  72.4446965  51.2611452  69.1757509  71.5647586  50.9396140
  68.7546818  72.7421674  51.8200737  26.6954295  45.2022672   0.5546560
  25.9323313  44.7399300   0.9141253  26.2560264  45.8322375  -0.0806161
  33.9762503  56.5865001   7.4774472  34.5874384  56.0232642   6.9465079
  33.6343777  55.9832165   8.1564253  55.9360560  81.2256333  51.3791989
  56.6249288  81.5086090  52.0106545  56.1025701  80.2579375  51.2578440
  31.5983135  53.8289173   1.5171597  32.1613942  53.1097175   1.5762186
  31.4368774  53.8898446   0.5416460
  -0.1688388   0.4879240   0.3516967   0.7940333  -0.4719277  -0.9251639
  -1.1069676   0.8659964   0.1743290  -0.2909101  -0.5668737   0.3153745
   0.2452919   0.0326694   0.2718221  -0.0962730   0.6244206  -0.5990116
   0.4479891   0.1800076   0.1120004  -0.7340528  -1.1018125  -0.1594397
  -0.5944341  -0.3431355  -0.2316179   0.1909296  -0.0401553  -0.0193067
   0.1091854   0.0455565   0.1878016  -0.2887767  -0.4349973  -0.1853254
  -0.0171601  -0.3032538  -0.2063803  -0.0178560  -0.4546675  -0.0026979
   0.0827346  -0.0094867  -0.3249906   0.6290631   0.3567511   0.4361269
  -0.3289741   0.1268265  -0.3089973   1.1471689   0.0423358  -0.6423902
   0.4503294  -0.2536445   0.4898351  -0.4070924  -1.1855225   0.4952423
   0.1599515   0.1313871   0.5197801   0.1454673   0.1672123  -0.3221330
  -0.0278149   0.0894747   0.0233042  -0.3044534   0.1438993   0.1191422
   0.0135010   0.0594578   0.1118475   0.1656029  -0.2704844  -0.0908648
   0.0306589  -0.0184921   0.3149432   0.1423099   0.1770509   0.4898502
   0.4019589  -0.4190423  -0.1763797  -2.3302967   0.9642181   0.1496362
  -0.1960276   0.1792853   0.1001769  -0.9130546   0.5089872   0.6300580
  -0.3163551  -0.2194069  -0.2472792   0.1914059   0.9025867  -0.1545317
   0.1640313  -0.4129535   0.9095843  -1.8844302  -0.3932029   0.7800060
   0.0248617   0.0197011  -0.0942905   1.3135106  -0.8660967   0.1783795
   0.4302047  -0.1303732  -0.3269180  -0.1315313   0.4030362  -0.2494468
  -0.2889941   0.1156466   0.6559764   0.2919581   0.8896961  -0.1769865
   0.4368790   0.2732844   0.7362033  -0.2430634  -0.1148967   0.0251666
  -0.0466097  -0.1618742   0.0168355  -0.0885124   0.6495866  -0.3834706
  -0.5759759  -1.1450495   0.1477875  -0.1745550   0.1287868  -0.3109217
   0.4636235  -0.1680561   1.0272489   0.1458102  -0.2701725  -0.1962522
   0.0177656  -0.3784608   0.2477359   0.2912960   0.4731971   1.0171553
  -0.1098247  -0.2240780  -0.1363266  -0.1225434   0.0997430   0.0310490
   0.3401589  -0.4358388   0.9220917  -0.1343931  -0.2430270   0.1072715
   0.4551071  -0.6224825   0.0267665   0.2102739   0.0117914  -0.5310683
   0.2474984  -0.3160729   0.0533841   0.1278370   0.1310215   0.0455031
   1.3359067  -0.1896420  -0.0233636  -0.1150928   0.1055665  -0.2723594
  -1.8662910  -0.4567458  -0.2736107   0.0334092   0.0634496   0.0584356
   0.0254724  -0.0496246  -0.1167046   0.1117729  -0.0442651   0.1495348
  -0.1017400   0.4264386   0.0424046  -0.0946991  -0.1715163   0.1220570
  -0.0351069   0.4994563   0.6407503  -0.1842342   0.0523024  -0.1179847
   0.0906919  -0.8319644   0.0554292   0.2281301   0.9402485   0.9854446
  -0.1526189   0.1031491  -0.1060270  -1.0740636   0.2036399   1.1611087
   0.1261994   0.0752180   0.9085666  -0.0730153  -0.2917262  -0.4726728
   1.1844788   0.8211344  -1.0778409   0.4094129  -0.4665638   0.5404807
   0.2035738   0.6675908   0.0632336  -1.2283617  -0.9851413  -0.7126726
   0.2204573   0.2065440   0.0495050  -0.1566195   0.0319145   0.0683183
  -0.8282970  -0.0619931  -0.7027140   0.1292765   0.2428734   1.2001825
   0.1175414   0.0583547  -0.0176716  -0.5469029   0.1094271  -0.6913162
   0.6705246   0.6792752  -0.0285524   0.1400422   0.0267107   0.3438582
  -0.2414559   0.1581311  -0.0487422  -0.0807491  -0.0878707   0.0002722
   1.3415394  -1.0845893  -0.5279083  -0.0488058  -0.1748288  -0.1161856
   0.2022794   0.1316101   0.1375840   0.1579522   0.1108101  -0.1793109
   0.4141149   0.1441607   1.5281080   0.4493310   0.4201372  -0.1149276
  -0.0817652  -0.1219185   0.2998440   0.2795300  -1.3156479   0.0731585
  -0.0908953   0.5902758   1.4083521  -0.1984215   0.0373650  -0.1141452
   1.3846630   0.0308951   0.4176197  -0.4142003   1.1146655  -0.5118998
   0.0486601  -0.0166026   0.1473531   0.1069179  -1.3449401  -0.1140386
  -0.1851128  -0.6557357   0.0854542   0.0923595  -0.1956044   0.2669656
   0.3528532   1.6399786   0.7597104   0.1935013  -0.4974336  -0.9828508
   0.7003709   0.9199867   0.2680812  -0.3782478  -0.0454336  -0.0174546
  -0.0116271   0.2537800  -0.0917069  -0.1883281  -0.4329860   0.3403578
  -0.6622649  -0.3749687  -0.7693801   0.3218082  -0.2822148  -0.2697082
  -0.8535412   0.1813575   0.4003131  -0.0600402  -0.1384403   0.0310912
   1.0485494   0.2743779   0.5746833  -0.8778501  -0.0656101  -0.6296485
   0.2374730   0.2255567   0.1631820  -1.7956978   0.1718758  -0.0682336
  -0.0553491   0.8139967  -0.5287151   0.0395742   0.3855512   0.2838178
   2.5537881   0.5524755   0.0767115  -0.9749141  -0.3044008  -0.2399828
  -0.0022475  -0.2309495   0.0568059  -0.4640730   0.1081648  -0.0353868
  -0.1171926   0.1401231  -0.0599907  -0.1490564   0.0010321  -0.0361976
  -0.2995520   0.8277921  -0.5057227  -0.0147505   0.6438953  -0.4567294
  -0.0397587  -0.2680122  -0.2136924  -0.1065885  -0.0038698   0.0805677
  -0.5059114   0.3072771   0.1843130   0.2443362  -0.1220852  -0.1026281
   0.0621217  -0.2445243   0.1165030  -0.0502999  -0.2707088  -0.3428194
   0.6264955   0.3967334  -0.6422618   0.5160144  -0.1087253   0.2325519
   0.0822284  -0.1772353   0.3224970   0.3429585   0.0312719   0.2504682
   0.9654890  -0.3034758  -0.5206618  -0.1452466   0.2512394   0.3467310
  -0.0343713   0.2650130  -0.2782886  -0.2223186  -0.2273406   1.0603588
  -0.1341461   0.3499282  -0.7385636   0.3643519  -0.2522596   0.3145196
  -1.3063932  -0.2479617   0.4776771   0.5822994   0.9681620  -1.8487303
  -0.2207347   0.2859283  -0.0044071   2.0029469  -0.4371064   0.0428905
  -0.0682405   0.0849811  -0.4905830  -0.2404877  -0.1402431   0.2414011
   0.1384718  -0.4568145   1.2336401  -1.3183323   0.3872981  -0.2626146
  -0.2109746   0.1209809   0.1389803   0.1089984  -0.9342608   0.3391174
  -1.2269998  -0.2456511   0.3464396  -0.0210393  -0.1785743  -0.2489718
  -0.0520817  -0.1877669  -0.0277114  -0.0187546   0.1920881   0.6073939
   1.2641425   0.2401321   1.6933080  -0.2210788  -0.1075746   0.0583588
   0.0071365   0.8879324  -0.7800622   0.3015129  -0.0302011   0.1416883
   0.0755407  -0.3985919  -1.1791475  -0.1171018  -0.7068436   0.0484470
   0.1516074   0.0275092   0.4326557  -0.4806052  -1.4221793  -0.2528017
  -0.3496236   0.1843644  -0.2914011  -0.2756696   0.6006776  -0.3487389
  -1.0645234   0.9770487  -0.0773463  -0.0481871   0.1807279  -0.9523415
  -0.0507065  -0.2495020  -0.1554768   0.0789321   0.1838499   0.9804481
   0.3554949   0.4588676   1.6173092  -1.3879888  -0.6712284   0.6512837
   0.0105182  -0.0731118   0.0065131   0.2249349  -0.0593273  -0.1106771
   0.2752732  -0.1314141  -0.0450316   1.3224884  -0.0471658  -0.0946230
   0.0877803  -0.0832831   0.2420315  -0.6433443  -0.5644279  -0.0456156
  -0.3666198   0.1245838   0.1207972  -0.7647945   0.3129255   0.2751124
   0.0557691  -0.0980591  -0.2148869  -0.2496145   0.5922412   0.7812291
   0.5435271   0.1827122   1.0200789  -0.4182668  -0.2259071  -0.4890450
  -0.0345845  -0.0639778   0.3232652   2.5915356  -0.5308606  -0.1209755
   0.2121340  -0.1778196   0.2930774  -0.0457925   0.0385852   0.1076620
  -0.0112762   0.0492520  -0.2320556   2.0788633  -0.6972019  -0.1503590
   0.3029936   0.4670661  -0.2621195   0.0995443  -0.5914627   0.2748653
  -0.1362400  -0.5094451  -0.0358151  -0.1112173   0.3745748  -0.7428334
   0.0417832  -0.1635766   0.0393394   0.7559024  -0.3573294  -0.9185690
  -0.4821025  -0.0865854   1.4350989   0.5960570   1.4996341  -0.7636131
  -0.1645167   0.2367445   0.0836736  -0.0503452   0.2710366   0.1297149
   0.1944736   1.1625878   0.4647256  -0.1733568   0.5071487   0.0268881
  -0.0193263   0.8280135  -1.1092272   1.1650652  -0.0032848   0.7082491
   1.3277937  -1.3338481  -0.7717917   0.1110401   0.3919767  -0.1074711
   0.1102094  -0.3038582  -0.2025439   0.2842728   0.0376351   0.0891228
  -0.2538136  -0.0373324  -0.8461661  -0.1398969  -0.0579783  -0.5621740
  -1.0606077   0.4794466  -0.1546257  -0.0539129  -0.1304200  -0.3035295
  -0.7289337  -0.0484250   1.0470144   0.3580787  -0.0766511   0.5754732
  -0.2230663   0.3193528  -0.0065754   0.2085859  -0.5174344  -0.0011754
   0.1466400  -0.0923245  -0.1177523  -0.0677711  -0.1911504   0.0195537
   0.3345358  -0.3537518  -0.0668770   1.4726547  -1.0303839   0.4409255
  -0.2434290  -0.4726771   0.3241498  -0.5414252  -0.1380679   0.7259241
  -0.0610848  -0.3218825  -0.2533509   0.2425870  -0.0723138   0.0357753
  -0.0181164   0.0667396   0.0650635   0.0696207  -0.3478765  -1.4516103
   0.2275743  -0.3096964   0.1725903   0.6560858  -0.3084627  -1.1426837
  -0.0713545   0.4159246  -0.2410348   1.3994618  -1.4510430   0.0813809
  -0.4083484  -0.7340119  -0.0469810  -0.1977487   0.4200418   0.2239786
   0.0282122   0.0218713  -0.3856258   0.1265721  -0.1539061  -0.2885682
   0.3919623  -0.0105426   0.0416081   0.2323788   0.0042932   0.2271440
   0.5170737   0.0131663   0.1870147   0.6805914   0.8949622  -0.2702664
   0.2196785  -0.0968573   0.1259793  -0.2872261  -0.5170185   0.3745310
  -0.0562448  -0.4859582   0.0618268   1.0501624   0.2723526  -0.4328009
   1.1361542   1.6651630  -1.3779040   0.1381593  -0.1368183  -0.3149221
   0.4791713   1.0841862   0.2541181   0.0019034   0.1302314  -0.0701152
   0.7251572  -1.0979958   0.1441719  -0.2425661  -0.4746577  -1.0341771
  -0.8424808   0.3660646  -1.2639618   0.4569450   0.1158409  -0.1112956
  -0.8242142   0.3746987  -0.6787412  -0.0314617   1.2903603  -0.9644866
   0.1254795  -0.5623593   1.3818466   0.1883588  -0.1806100  -0.0427783
   0.0352320  -0.3032208   0.1029566   0.1130823  -0.2736556   0.1840925
  -0.8454187   0.5876020  -0.8625389  -0.1591658   0.0477111  -0.0231070
   1.4617529  -0.7986237   1.0306121   0.2310200   0.2690628   0.3321103
   1.1263591  -1.9522380   0.4812065   1.2645573  -0.9412925  -0.6907923
   0.3087057   0.0741380  -0.0297331   0.0018864  -0.0366250   0.0650315
  -0.1490530  -0.0679280   0.1676839   0.0525724  -0.6796053  -0.9002690
  -0.0849735   0.2703349  -0.1192018   0.7334704  -0.4483837  -0.8329182
  -0.2497566  -0.2242859  -0.2917826   0.0320415  -0.4482984  -0.0923056
   0.0439433   0.5661290   0.2404099   0.3534642   0.1311942  -0.2723907
   0.0667579   0.2460342   0.1243704  -0.3059270   0.0482196  -0.2542160
  -0.2010904  -1.0031458  -0.0625212   0.0512683  -0.9396265   1.3015951
  -0.3067831   0.1231273  -0.0230407  -0.0094939   0.2501488   1.7573326
  -0.0337463   0.3229060   1.9243836   0.0215415  -0.1074595   0.0861107
  -0.9666081  -0.2483297  -0.6310934   0.6781296  -0.0554903   0.6654379
  -0.3214985  -0.2950370   0.2765089   0.0423715  -0.7525726   0.2806174
   0.1276287   0.0059953   0.2062526  -0.1423864   0.0983357   0.1942224
  -0.1430390  -0.2598025  -0.1819755   0.4315249   0.6410102  -0.2085923
   0.2715213   0.1946064  -0.0519990  -0.3026517   1.1277711  -0.4389928
   0.4019503   0.2873000  -0.9157269  -0.2560917  -0.1713302  -0.2574683
   0.0552068   0.2013962   0.0228202   0.1922722   0.3785000   0.1571644
   0.3069295  -0.0693447  -1.4046545  -0.1966468  -0.0520495   0.1445348
   0.1434983   0.2301287  -0.8043007  -0.1206649  -0.0049077   0.3606115
   0.3519177  -0.6627889  -0.2266041   0.1232238  -0.1158981  -1.4590389
   0.5371918  -0.3483663   0.3637445  -0.0609889   0.2804010  -0.0509663
  -0.0886434  -0.0769567  -0.3035875  -0.3006416   0.1183057  -0.0395625
  -0.2844879   1.4972848   0.9874464  -0.2962449   0.3070007  -0.1264380
   0.3410686  -0.1521916   1.2713600   0.5472380  -1.1848019   0.1132475
  -0.0745293  -0.2671738  -0.0132601   0.0896195   0.2793941  -0.0868147
   0.2404547   0.0493662  -0.0846507  -0.2437755  -0.7083980   0.0343468
   0.0957100  -0.3949343   0.1437202   0.6224743   0.0931137  -0.2584477
   0.1769131  -0.0354346   0.1499648  -0.5984661   0.7303700  -0.2339914
  -2.0030200   0.0420848  -0.7199228   0.0657531   0.0323195  -0.3024541
   0.5020559   1.0848476  -0.5340780   0.3862639   0.9627144   0.3916275
   0.1401757   0.0881076  -0.1426843  -0.9925247   0.3699860   0.2704654
  -0.2313285   0.2060323  -0.0974649  -0.0470165   0.1340335   0.1098257
   0.2135473   0.1581564  -0.0120930  -1.2848764   0.0783377   1.5820502
   0.1355976  -0.0919640   0.2292547   0.6331259   1.1881782  -0.2330960
  -1.5597034   1.3776603  -0.0418743   0.4979336  -1.3236897   0.3485823
  -0.1897770  -0.2238505   0.0534216  -0.3413131   0.0648822  -0.0141419
   0.3030455  -0.0500728   0.0439752   0.2757120  -0.6223115  -1.2463873
   0.0205168  -0.1547792   0.0353910   0.4737651  -0.6188555  -1.1650284
   0.1747783   0.1080026   0.0820285   0.3493248   0.5738449   0.3156179
  -0.1065838  -0.4329926   0.1177525   0.3028844  -0.4301812  -0.0001017
   0.7421635   1.4695041  -0.0404565  -0.8246227   0.9038222   0.1999630
   0.1796466  -0.1837719  -0.1579939  -0.4411813   1.2325637   0.0224989
   0.2601186  -0.0751676  -0.2935748  -0.2410673   0.1873133  -0.1286211
  -0.1966984  -0.0751994   0.0287822   0.3995434  -0.5891440  -0.0954167
  -0.1694476  -0.0733575   0.3589855  -0.5534393  -0.9668615  -0.9636892
   0.0298622   0.0083659   0.0878184   0.6146087  -1.2483478   0.6583098
   0.3931816  -0.8962861   0.2694630   0.2837729  -0.1418439   0.2425917
  -1.0955258   1.0079749   0.9905104   0.4443915  -1.3604384   0.2798998
  -0.1362652  -0.1856748  -0.1070657  -1.8202771   0.6746812  -1.0080851
  -0.0274018  -0.0312213  -1.1975687  -0.5486294  -0.3489662  -0.2307511
   0.5531703  -0.6565008   0.2505659  -1.0137056   0.7204796   0.6301809
  -0.0609403  -0.2530529   0.0426749  -0.0226263   0.3612212  -0.9444726
   0.7806549  -0.7417008  -1.1806150   1.4279340  -0.7594228   1.6262756
   0.1693353   0.0196586  -0.1376697   0.2415541   0.0057887  -0.0109428
   0.0950074   0.1118129   0.2085224   0.3071293  -0.0393833   0.2509747
   0.0084133   0.3071441  -0.0308520   1.4039410  -0.3701002  -0.8583152
   0.2899285   0.1480149  -0.3238414   1.1860555  -0.6481360  -0.8640433
  -1.1803310  -0.1758265   0.4490484  -0.1526668   0.3441245   0.2691635
  -0.1484541  -0.5301608  -0.8476142  -2.1129792   0.0387099   0.5392809
   0.2883800   0.3388602  -0.0209461  -0.4295873  -0.1625193  -0.8182585
  -0.6086336  -0.6679187   0.2178037  -0.0869342  -0.0849107  -0.2607648
   0.1381126  -0.4957471   0.7621141  -0.0445897   0.0221187  -0.0715965
  -0.0881953   0.4341575  -0.2605676  -0.3366642  -0.0274606  -0.1557192
   0.8796860  -0.0440330   0.0846580  -0.0393383   0.0579643   0.1418720
  -0.5830862  -0.7102976  -1.9285816  -0.3931062   0.2336534   0.3146298
  -0.2343099   0.1525806  -0.3666236  -0.2458299  -0.1502880   0.0146021
  -0.2543310   0.0167789  -0.1611687  -0.6475844  -0.4800234  -1.3312662
  -0.2213049   0.2901353  -0.1588514  -0.3674418  -0.8141159  -1.5432279
  -0.2171500  -0.1010680  -0.1837020  -0.6125370   0.7972470  -0.6559376
   0.0895864  -2.1427005  -0.2648765   0.0101866  -0.2894966  -0.2858254
  -0.0609656   0.3782919   0.0592234  -0.7786279   1.9282665   1.1403482
   0.0658534   0.2180645  -0.0257041  -0.3695283  -0.1958941  -0.3608067
   0.1367234  -0.1042931   0.2955353   0.0852948   0.2878017  -0.2129374
  -1.7451775   0.5673423   0.3336636  -0.1834371   0.0941718   0.0891970
  -0.6799801   0.1585603  -0.7977863  -0.2915854   0.2144245  -0.4860876
   1.4323846   0.8246599  -0.2353173  -0.2991160   0.0108438   0.0181541
   0.0140001  -0.1756402   0.1626682   0.0509868   0.3045636   0.2698047
  -0.8207357   0.3050399   0.2206490  -0.0192384   0.1888046   0.2502524
   0.0843116   1.1839566  -0.1957741  -0.0420691   0.1887846   0.3789369
  -0.2497888  -0.2238946   1.1552455  -1.3187150   0.8286814   0.3856810
  -0.2792008   0.4054001  -0.0536927   0.5469362  -0.1282082   0.9124549
   0.1624605  -0.3557207  -0.0738993   1.2873772   1.1802496  -1.6344175
   0.9793188   0.1494962   0.4101908  -0.6395892   1.3812398   0.1882415
  -0.2621857   0.0247549  -0.3091568   0.9064949   0.3112279   1.5828902
   0.5821191   0.0077959  -0.8311032   0.7527820   1.1482161  -1.2859400
  -0.1912570   0.1411187  -0.1134776   0.0878377  -0.0849938  -0.0897887
   0.0450553  -0.2005543  -0.2474993  -0.1188022   0.2235371   0.0185556
  -0.4698267   1.6807883  -0.5798732   0.7840404  -0.7123140  -0.5240768
  -0.3073708   0.0737429  -0.0285010  -0.1861982   1.3292044  -0.9161759
  -0.7779003   0.9551917   0.0521449   0.3824149   0.1955266   0.1940705
   0.0483196   0.1254653  -0.9114989  -0.1787416  -0.9733495  -0.5568821
  -0.1166494  -0.3973258   0.5405360  -0.6651010  -0.9521202  -0.6386059
  -0.4347830   0.0099704   0.1333241  -0.1538077  -0.0198844  -0.0005652
   0.2051628   0.0411055  -0.1255943  -0.2305737   0.5303376  -0.0754772
  -0.0037331  -0.0084993  -0.2200403  -0.5772152  -0.0553646   0.3864310
   0.2147728  -0.2144561  -0.0700314  -0.5742141  -0.9404798  -1.8240037
  -1.1194085   0.3477938  -0.3759275   0.6841674   0.7804342  -0.0350386
  -0.2392403   0.0893001   0.3974886  -0.0522413   0.0309143   0.2330518
  -0.2338680  -0.0498064  -0.1355621  -0.2992601  -0.8695101  -1.0934172
  -0.1886516   0.2293527  -0.0911184   0.9984604   0.1436421   0.3523889
  -0.0083512   0.1790422  -0.1039847   0.5178514  -0.9012053   0.3014928
   0.2148112  -0.0272900   0.0255630  -0.5607728  -0.6203805  -1.3866416
  -0.0319008  -0.8244357  -1.1143761   0.5810516   0.6994321   0.1857476
   0.1101473  -0.3416315  -0.2975964   0.7042532   0.2622259   0.9108231
   0.9531269   0.3248981  -1.2723042   0.0841586  -0.3984196  -0.4131081
   0.4105274   0.7102269   0.4464574  -0.6339960  -0.1068717  -0.2473328
   0.6890620  -0.1678864   1.7374507   0.0113650  -0.2344026  -0.0467230
  -0.1878733   0.1101840   0.1865395   0.0190415   0.0586072  -0.1899860
  -0.9009920  -0.5142691  -0.3912211   0.3298763   0.0500284  -0.3777306
   0.3898425   0.3995862  -0.4892344   0.1398275   0.3043516   0.0411383
   0.3814467   0.3023315   0.9204586  -0.0848949   0.1248391  -0.3139844
   0.9959677  -0.1769335   1.3076129  -0.5024476   1.5943341   0.8012029
   0.6694132   0.6588649  -0.8317350  -0.3470534   0.1495148   0.1788172
  -0.0046892   0.2012134  -0.5936832   0.3968041  -0.0661179  -0.3274763
  -0.7015348   0.7734758   1.0401037  -0.1504509  -0.2568116   0.2787077
  -0.1716016  -0.0122937  -0.0633439  -0.2642325  -0.1132484  -0.1657118
  -0.5721441  -0.5897048  -0.6458146   0.3422505  -0.0817537  -0.0440007
   0.3478717   1.2268733  -1.1062064  -0.2583980   0.0278989  -0.2947967
   0.5162072   0.6344977  -0.2979018   0.4819837   0.4423823  -0.4544810
  -0.1001652   0.3785126   0.0926654   0.4483037   0.8144162   0.2186845
   0.4071236   0.7565988   0.1617913  -0.0258021  -0.5034792   0.2183615
  -0.5772775  -0.2836709   0.3587733  -0.8074185   0.3555060   0.7012431
  -0.1081851   0.2882077   0.0752985   0.2983675   0.7596581   0.6076835
  -0.1062081  -0.1791725  -0.0902033   0.0338824  -0.0936538   0.0344980
  -0.8191895   0.0755526   0.7773576   1.8032620   0.4287279   0.8375753
   0.1159921  -0.0285108   0.0030865  -2.4544899  -0.2914936   1.4474569
  -0.2204572   1.5960044   0.8823384  -0.0251086  -0.2495310  -0.3084477
  -0.0721915   0.2323338  -0.2136684  -0.1023587  -0.4361599   0.2452331
  -0.9831412  -0.8257977  -0.5388710   0.2762880  -0.1257774  -0.0209823
  -0.0422599  -0.0825400   0.4440225   0.2255747   0.3200440  -0.1922232
   2.0520399  -1.9258918   0.3959861   0.2922857   0.1375889  -0.5356497
   0.1551899   0.3006422  -0.4171339  -1.6931270   0.6543286  -0.3371944
  -1.2479793  -0.6026091   0.8456403   0.2239728   0.4691056   0.1012357
   0.0211453  -0.0001717  -0.1794843  -0.0487368   0.0759836  -0.1686285
  -0.6576232   0.0808130   0.1179092   0.0458188  -0.1522574  -0.1228954
   0.2596256  -0.0349111  -0.0643103   0.2248874  -1.3399713  -0.5934748
   0.0609139   0.1387302   0.0382818   0.0774526   0.8762016  -0.6340221
  -0.2679741  -0.5418953   0.1050131   0.3710663  -0.1658770   0.6701181
  -0.3697820   0.6839315  -0.4719310   0.6678688  -0.1080592  -0.6028920
  -0.2374544   0.5862502  -0.0045370  -0.1640315   0.4179269  -0.2602938
  -0.0426806   0.0919614   0.4584794   1.0466423   1.5273220  -0.9710610
  -0.0548059   0.1902620   0.2681103  -0.0692452  -0.1315491   0.3879053
  -0.5943756   0.0324438  -0.3470461  -0.7192995   0.7433465   0.8698663
   0.1250303   0.3164841  -0.0925896  -0.1634815   0.9742360  -0.3911866
  -0.6132625  -0.1036434  -0.0543855   0.6812796  -1.7289246  -0.1143407
  -0.1668679  -0.0045280  -0.1159263   0.5118859   0.8495013  -0.0881085
   2.2981959  -0.8256386   0.5262408  -0.1379292   0.0968725   0.4769332
  -0.1751858  -0.8893615  -0.3839727  -0.4690008   0.4455889   0.1611782
   0.4291208  -0.9224175  -0.6986079  -0.3938186   0.2156883   0.2697710
   0.1452215  -0.2946516  -0.2005659  -0.0940996   0.5302883   0.4043457
   1.2319238  -0.3947233  -0.1394150   0.0293158   0.5526865   0.2499693
  -0.0973865   0.4435532  -0.1275980   0.1734950   0.0429878   0.2679837
   0.2492758   0.3474860   0.3647572  -0.3825576  -0.5875304  -1.8597473
  -0.1134774   0.1404279  -0.3408915  -0.2345980  -0.8603272  -0.4436407
   0.6026784   0.2425976  -0.0346372   0.4229530   0.0229390  -0.0329970
   0.5628438  -0.4900658   0.2318102   0.1184769   1.2580707   0.6842070
  -0.1355974  -0.1593503   0.0950677   0.7261336  -0.3744570   0.7222071
  -0.3102114  -1.2290692   0.5766634   0.1625200   0.1002129  -0.0601001
   0.1862781   0.2010414   0.0223780  -0.9283546   0.0816190  -0.6573103
  -0.7228593   0.3439803  -0.6662953   0.0906302   0.0786115  -0.2340652
   0.0414459  -0.1242243  -0.0059522  -0.1115771   0.3250247   0.0385839
   1.2127817  -0.3434563  -0.7285310  -0.0238058  -0.0981636  -0.1181034
  -0.3377722   0.3602142   0.6691532  -0.0147878  -0.3780891   0.3300689
  -0.0966641   0.2037071  -2.3569606  -1.4699529  -0.2191086   0.4208742
   0.4334359   0.3158139  -0.1344324   0.6920299  -0.6498311   0.6371191
  -1.4173685  -0.0334942  -0.1658502  -0.2084036   0.1911874   0.1877789
  -2.1577864  -0.1154099  -0.2265290  -0.8640312   0.4395934  -0.5336229
   0.1658138  -0.1466665   0.1263274   0.1235907  -0.2341171  -0.0394139
  -0.0813947  -0.2666290  -0.3378626  -0.0097780  -0.1075132   0.1887222
  -0.6267078  -0.8064679   0.4305012   0.2540109  -0.1142045  -0.2269401
   0.2298026  -0.1634810  -0.2088911  -0.7092229  -0.7463337   0.4341129
   0.7423046   0.1702860   0.5097730   0.2603577   0.4201281   0.1155860
  -0.1601872  -0.2057788  -0.1416777  -0.0880839  -0.0750819   0.0380323
   0.1844353  -0.7001613  -0.0538648  -0.3881062   0.1242496  -0.2844450
  -0.9260162  -0.5654297  -0.7496630   0.2681380   0.3574473   0.3493096
   0.2992966  -0.1304106  -0.4368391  -0.0949696   0.0446171   0.1979257
  -0.1161520   0.1672423  -0.4505310   0.1053047   0.5307512  -1.6603939
   0.1735873   0.6320154  -0.2967876   0.3527932  -0.4084657  -1.3898603
  -0.1873485   0.2712783   0.0923250  -0.7297679   0.6834136  -1.8091637
  -0.6921280   1.3134212  -0.1277839   0.0004524   0.5328878  -0.1460535
   0.0144148  -0.4344185  -0.8543559  -0.0933471  -0.0679137   0.0552431
  -0.3644366   0.3820734  -0.2983520  -0.0718962   0.7007298  -0.4112017
  -0.1533624  -0.3080566  -0.1726790   0.1746844   0.1039012   0.3733066
  -0.9347808  -0.1964058   0.2632414   0.8203641  -0.4969127   0.8480237
   0.4178743   0.0864581   0.2795707  -0.0327547   0.3009465  -0.1484800
  -0.0621191   0.0783088   0.1117484  -0.0191279  -0.2260881  -0.1501455
   0.0418973  -0.2845552   0.4046300   0.1776042  -0.3803889   0.1367139
  -0.3049508   1.9163649   0.3841953   0.0419738  -0.0740441  -0.0692913
  -0.5589783   0.8809805  -0.1084317  -0.7929574   1.0841666   0.3861092
   0.3484044  -0.1331408   0.1185057   0.0494800   0.3917196  -0.6798428
  -0.4625983  -0.2132112   0.1088109  -0.1690842   0.1397176   0.0292071
   0.8737134  -0.8918834   0.8857020  -0.2960062  -1.1219364   1.2298352
  -0.4368526  -0.2182220  -0.2509788  -0.5108446  -0.6940275   0.0923233
  -0.0663973   0.1625534  -0.0974983   0.0010666  -0.0812221  -0.2044280
  -0.0822461  -0.4081541  -1.2953424   0.2727751   0.1303811   0.4451590
   0.0212713  -0.0701194  -0.0522700  -0.2454556  -1.1240532  -0.3196406
   0.4555244   0.4087990  -0.0646197   0.0138284  -0.2803314   0.1822521
  -0.0357693  -0.0099482  -0.2316059  -0.2586025   0.3467974  -0.1373737
   0.1695877  -0.8024880   0.1307687  -0.0177001   0.3896528   0.2276248
   0.1927319   0.6006778   2.2469616  -0.4135231  -0.3428923  -0.7613091
   0.4663484  -0.1941446   0.6569053   0.0627423  -0.5191131  -0.1526753
   0.4439303  -0.5260642  -0.5152202  -1.4461739   0.2331396  -1.0739282
  -0.0646185  -1.1319609   0.6838635  -0.0353438   0.0170965  -0.4960783
  -1.0855840   0.5871351  -1.0874389  -0.0159196   0.0306712  -0.3034956
  -0.1320526   0.1466459  -0.1179815  -0.2877983  -0.1339674   0.0016824
   0.0762445  -0.9713713  -1.3986843   0.2453967  -0.0408880   0.0940521
   1.3061724   0.1558808  -1.2109429   0.5971471  -0.2902212   0.0764881
   0.8313233   0.7860423   0.1948517  -0.7353575   0.5278922   0.6381225
  -0.2341995   0.2463828   0.2289217   0.7351174  -1.1664485  -0.2160252
   0.0614735  -0.1247673  -0.0393526   0.4497936  -0.8550581  -1.0767477
  -1.0835568   2.3184734  -0.1024631   0.7528209   0.9763349  -0.7191632
   0.0159933   0.0792729   0.2584841   0.1970715  -0.4667747  -1.0112593
  -0.3892795   0.3664654  -0.2930593  -0.9206541  -0.2974621   0.0643707
   0.1473443  -0.0049690  -0.1278536  -0.2550091   0.1199990   0.4275693
   0.7050428  -0.1613680   0.2023302   0.0394443  -0.2068618   0.5126435
   0.0200003  -0.0486561   0.0511576  -1.4237379   1.3178140   0.4298239
  -0.1837627   0.2248083  -0.0592586  -0.3152104   0.2099878   1.2949709
  -0.1106461  -0.2260277  -0.4126789  -0.0937603  -0.2069972   0.8851967
   0.2401452   0.5336123  -0.4252234   0.2193524  -0.2808485  -1.3113016
  -0.1548097  -0.1282991  -0.1345104   0.5794605   0.0105274  -0.4090954
   1.2951600  -0.9993485   0.5735118  -0.1600543  -0.2937975   0.0395203
  -0.6708045  -0.7753804  -0.9349067   0.3605347  -1.9880901  -0.1713344
   0.1632207   0.2971225  -1.4838593   0.2947536   0.4417627  -0.1376222
   0.0051059  -0.2225344  -0.1274740   0.1933019   0.0820893   0.2050436
   0.0646824   0.2846992   1.6560708   0.2223017   0.0427584  -0.0003656
  -0.8151754  -0.6546732  -0.7996663  -0.0173086   0.1019360  -0.1590634
   0.1354620   0.8733552  -0.7363333  -0.7224076  -0.1609961  -0.3211046
   0.3027645  -0.3124828  -0.3659753   0.2178681  -1.4240787   0.2791559
   0.1838321  -0.0254695  -0.0316461   0.1450708   0.0877883   0.6053495
  -0.2451108   0.0296492   0.9284858  -0.9226304   0.4551340   0.2269607
  -0.3825414  -0.0023005   0.1340906   0.4307676  -0.0170987  -1.0505393
  -0.2831273   0.4031679  -1.0940579  -2.2818605   0.3291431  -0.6704853
   0.0018567  -0.4664097  -0.1148469  -0.2683792  -0.1229652   0.1372169
   0.7489955   0.0437563   0.0655128  -0.0994817   0.2455978  -0.1489033
   0.2918397  -0.3620235  -0.0263018   0.0658974   0.7279607  -0.0689420
   0.3542453   0.2068985  -0.0166420   1.4431637   1.4879720   0.9706316
   0.6847938   0.2018257   0.7363081   0.4172015   0.6819543  -0.2908709
  -0.0658448  -0.1096134   0.1616385   0.0044367  -0.0826150   0.0023485
  -0.1137219  -0.1530354  -0.1252352   0.0030070  -0.0825502  -0.0314554
   0.1389536  -0.1662110   1.0853718   0.1830824  -0.0109639  -0.3406342
  -0.3882147   0.0686299   0.0303527  -0.2495714   0.8721594   0.2246636
   0.2987451   0.3640659  -0.2391031   0.1254390  -0.1135080  -0.2330395
   0.9456508  -0.2006271   0.2790717   0.2063083   0.8773697  -0.5063705
   0.4167602   0.3458159   0.0376307  -0.5445324  -0.9505173   0.2532153
  -0.3245332  -0.1218316   0.1719874   0.1262414  -0.3750312  -0.1208080
   0.0524630  -0.1337663  -0.2077960  -0.2847363   0.1397636  -0.2027017
  -0.0655610  -0.2226775   0.1122426  -0.1140350   0.2413528   0.3421648
   0.0339246  -0.0487834   0.2572282  -0.1842071   0.1049117  -0.5862465
   0.2657125  -0.3640965   0.0268053  -0.0790679   0.5417349   0.9633474
  -1.2487318  -0.3321510  -0.6945663   1.5591818   0.1968247  -0.1289374
   0.1305765  -0.0161166   0.1103012   0.1674758  -0.6542604   0.3042369
  -0.0148977  -0.5944843  -0.0885505   0.0014274   0.0100767  -0.0414893
  -0.2375848   0.0057409   0.2471626   0.0219016   0.2214329   0.8602461
  -0.4103326  -0.3599583  -0.0822850  -0.5204557  -0.0858242   1.1463448
  -0.0407793  -0.1292703   0.2649269  -0.8713002  -0.9302472  -0.4955970
  -0.9074412  -1.1893056  -1.3808464  -0.1126363  -0.1936958   0.2881447
  -1.0709561   0.4042449   0.4934106  -0.2260420  -0.0663194   0.0114126
   0.1611396  -0.1844709  -0.4387809  -0.0990383   0.4993924   0.4962509
  -1.3196266  -0.1617069  -1.0400161  -0.0846581  -0.1956546  -0.3022908
  -0.0974276   0.8818197   0.3000580  -0.5643570   0.2618366   0.0892530
   0.1639873  -0.0721476  -0.5456644  -0.4489145   1.3555573   0.3240486
   0.1847045  -1.2333367  -0.2895868   0.0903902   0.0300205   0.3614519
   0.4449103   0.4029981  -0.4179979   0.3892689  -0.1956932  -1.4409133
  -0.0501776   0.1149939   0.0192455  -0.0320302   0.0511215   0.0372497
  -0.3100292   0.0492576  -0.1941308   0.3873021  -0.5339307   0.1031080
  -0.2280177   0.1842755  -0.0821842   0.7050862   0.2120726  -1.3083386
   0.0604535  -0.2204974   0.1208064   1.3726223   0.3448242   0.1394800
   0.0783465   0.0670403   0.2440544   1.3691406  -0.6730583   0.7238354
  -0.3062901   0.1940355  -1.5499462   0.3709470  -0.6503746  -0.0965684
  -0.0874684  -0.1455132  -0.0683307  -0.4605178   1.3380603   0.6094189
  -0.1081453  -0.2163479   1.2987658  -0.7034214  -0.5289463   0.1404558
  -0.0174142   0.1420234   0.2573016  -0.0209734   0.2439648   0.0974693
   0.1445005  -0.1868530  -0.2241367  -0.3554839   0.4148401  -0.8013073
  -0.3863054  -0.0017764  -0.1230313   0.3384667   0.1601362   0.3227346
  -0.3414032   0.1637032  -0.0292233  -0.2914770   0.8608710  -0.5807922
  -0.2190764  -0.2516359  -0.0962024  -0.0265079  -0.2973006   1.0798861
   0.0042910  -0.7355473   0.1424320  -0.7561995  -0.0524030   1.0519686
  -0.1482004  -0.0764814  -0.0459289  -0.7233396   0.9073070   0.5619407
  -1.6054766   0.9030270   0.4874291  -1.7457846  -0.2348032   1.2147059
   0.1232581  -0.1671118   0.0782402   0.0959628  -0.0028226  -0.3734707
  -0.2606515  -0.1009515   0.0315345  -0.7866047   0.6344891   1.3052199
   0.2391444   0.1191028  -0.0548873  -0.3526688   1.4323165  -1.0405543
   0.3950593  -0.0582863  -0.1791490  -1.2672196  -1.0796047  -0.9419894
  -0.0906406  -1.5766952  -1.0760653   0.4053970  -0.6962544  -0.4935546
  -0.3446238   0.0140362  -0.0450965  -0.0270890  -0.1749956  -0.0248222
  -0.1623882  -0.0531936   0.0734812  -0.8170421   1.4272521  -0.6337658
  -0.0888779  -0.0718134  -0.2869157  -0.5232614   0.3142902  -0.8695744
  -0.3642085  -0.4008868   0.2297101  -0.3237270   0.3419571  -0.4132548
   0.7360007   0.1367383  -0.1901289   0.0070076   0.5805935   0.2921215
  -0.1793042  -0.1939904  -0.3017405   0.2082235   0.1996258  -0.4493641
  -0.5189179   0.1862767   0.1043875   0.6602589  -0.5075498  -0.8007694
   0.0482286   0.0209751  -0.2962317   1.8627520  -0.6780967  -0.6682772
  -0.0860063   0.0887344   0.3948761   0.6558870   0.7052779  -0.3782502
  -0.7109955  -0.3088787  -0.9952361  -0.3685036   0.1419996  -0.0072579
   0.1733724   1.0288095  -0.0317515  -0.5091089  -0.4399280  -0.6545259
   0.2760095  -0.2477991  -0.0531010  -0.2793231   0.1748154   0.2911247
   0.1132708   0.2173739  -0.3543634  -0.0046996  -0.0513699   0.3966743
   0.0897767   0.2241597   0.2283227   0.3705335  -0.2050561   0.2972469
   0.9042093   0.8412423   0.7746873  -0.3034881  -0.3077261   0.5382084
   0.6697311   1.0757552   0.0549787  -0.2525481  -0.1434456  -0.0052633
   0.3058557  -0.9699886   0.4439159   1.3287952   0.6373771  -1.0407358
   0.1839443   0.1958223  -0.1537164  -0.4806382   0.6427394   0.4460885
   0.0663757  -0.2796773   0.3104620   0.3488564  -0.0278490   0.0091374
  -0.0118910   0.1589861   0.0087162  -0.8950838   0.6025674  -0.6024104
  -0.9460699   0.4669024   0.4790397   0.8985253  -0.2137889   0.4056208
   0.0406534  -0.2998912   0.9031994  -0.2550597   0.0110716  -0.2589076
  -0.2213944   0.0327974   0.1348411  -0.3187528   1.3579784   0.9581040
  -0.0910976  -0.1095239  -0.0621675  -0.1999504  -0.1326711   0.4882275
   0.1975237   0.2519338   0.2563516   0.5409726   0.8711129   0.3398540
  -1.2969633  -1.0370512   1.0800981  -0.0114345  -0.1303889   0.1016354
   0.0405285  -1.5931901  -0.9082419   0.0508311  -0.3023582  -0.7596098
   0.3061157   0.2018318   0.2477375   0.0251486   0.0590310  -0.0822289
   0.2059408   0.0840083  -0.2026021   0.1703047   0.0301914  -0.2307621
  -0.3137020   0.2595049  -0.1337120   0.0429117   0.0293312  -0.1366751
  -0.1183757   0.7834874  -0.1350686   0.3340996   0.1549126  -0.3431124
  -0.9651463   0.0403624  -0.5028141   0.2303732  -0.0618220   0.1089339
   0.1641188   0.3756639   0.9555225  -0.1646946  -0.0111901  -0.5849576
  -0.1233543  -0.0401105  -0.3846384   0.1731763  -0.4077748  -0.3816481
  -0.2857670  -0.0687060   0.0654000   0.1974315  -0.0814044   0.2954176
   0.0556834  -0.2306425  -0.0241081  -0.1058349  -0.1382258   0.1024709
   0.0077635   0.1272940  -0.0019754   0.2278035  -0.0619286  -0.0219078
  -0.1723069   0.0787189  -0.3681659  -1.0219378   0.8146869  -0.9310282
  -0.0978858   0.2574641  -0.1027319   0.3119187  -0.1606881   1.2116439
   0.0515938   0.5914041  -0.3664283   0.6520580   0.3159336   1.1832815
  -0.2728396  -0.8753901   0.9642574  -0.3620931   1.0573152  -0.4065942
   0.1002815   0.1861773  -0.1542968   0.0229224   0.1971221   0.2029986
   0.1710702  -0.1439313   0.0006813  -0.0902513   0.3389006  -0.9172679
  -0.1053793  -0.1381064  -0.0097004  -1.5430893  -0.5494673  -0.7767715
   0.0524169   0.2129352  -0.2758572   0.3909477  -0.0195147   0.5740468
  -0.6657894   0.3358989  -0.4180003   0.0519396   0.0714794  -0.1664761
   1.8660684  -0.6881461   0.4062316  -0.0971956  -0.1146553  -0.3114296
  -0.1156501  -0.4984945   1.3234204  -1.5107571   1.8419383  -0.4708201
  -0.2740112  -0.4785487   0.0700117   0.0594432  -0.2229945   0.1027864
   1.4771173   0.0311103  -0.4287762   1.1122066   0.2251802   0.4423918
   0.9075399   0.1990773   1.3000578   0.1503130   0.2049394  -0.2001603
  -0.1850812   0.3086968  -0.2876692   0.0878731   0.3512567  -0.2390505
  -1.3449955   1.3509644   0.1912228  -0.0539881  -0.2454755  -0.3842802
   0.2366779  -0.1871536  -0.0783544   0.0465686  -0.3102208  -0.0257728
   0.6384027   1.0419645   0.6996515  -0.3459399  -0.7340435  -0.1457962
   0.1055918  -0.0580972   0.1178566   0.0304098   0.6306596   0.8141198
   1.2404156  -0.2250255  -0.5310744  -0.0592693   0.3681813  -0.0255981
  -0.7042807   0.0222696  -1.3437824  -0.6178455  -1.6781598   0.4912454
   0.2562167   0.1053796  -0.1189538   0.6446913   0.7004358  -0.5072613
  -0.8624421  -0.0265572  -0.0520388   0.1777079  -0.0552341   0.1894548
  -0.4980737   0.3720354   0.2429693  -0.1938187   0.8449596  -0.1345236
   0.1180213  -0.3166833   0.1033604  -0.5641130  -0.6336324  -0.6647076
  -0.8509272  -0.1377549  -0.3398593  -0.0237668  -0.1577978   0.4161705
  -0.0594304  -0.2393142   0.4609699  -0.2503734  -0.2620387  -0.1475806
  -0.1831552   1.2643626   0.3350025   0.0264045   0.2683277  -0.2930171
  -0.2707397  -0.3377323   0.8694767   0.3172382  -0.6608540   0.0829263
  -0.1515525   0.0790940   0.0245104  -0.1549599   0.0053510  -0.2051859
   0.1170954  -0.0455080   0.1727142  -0.4858323   0.1626337  -0.4529873
   0.2442585  -0.0670386  -0.0309343  -0.5010747   0.1041499   0.0771234
   0.3405801   0.1048357   0.0927481  -0.2002381  -0.2665635   0.4358303
   0.0317784   0.9441239  -0.2232352  -0.0853685   0.0775631  -0.0785698
  -0.1508964   0.3345342   0.9077563  -0.1799573  -0.1182067  -0.0348210
  -0.2590278   0.3317789   0.0318281   0.2134061   0.0528403   0.2861859
  -0.8018512  -0.9390459   0.9147759  -0.0430088  -0.0540777  -0.4367987
  -1.2217309   0.5452189   0.7464294   1.3794013   0.3017550  -0.1625189
   1.9085953  -0.2113528   0.1709805  -0.2222336  -0.1189383  -0.1289975
  -0.0023053   0.0684852   0.1938116   0.1842763   0.1686814  -0.4049335
   0.0223172  -0.1856205   0.2240351   0.9191207  -0.0148278  -0.9999969
  -0.5274863   0.3161573   0.4365819   0.0826039  -0.2292045  -0.2750934
   0.0354415  -0.6378297   0.1654529   0.7551439  -0.7033172   0.0246636
  -0.0258977  -0.0227021  -0.1060546   0.1269324   0.2906168  -0.4394296
  -0.5047432   0.1801455   0.4178187  -0.0033139   0.1870516  -0.0760505
  -0.4242394  -0.5909645  -1.1092670   0.2947326   0.2526589  -0.1113621
   0.1181331  -0.1467157   0.0223537   0.2345822   0.1335531  -0.5087321
  -1.5834035   0.4856072  -0.7158626  -0.2575962   0.0764247   0.0623193
  -0.4971853  -0.5386009  -1.0306727  -0.2579067   0.2859883   0.1159278
  -0.1296855   0.0178224   0.5621115  -0.0797602  -0.0360895   0.0551388
   1.0403610   0.3818727  -1.4906825   1.3825774  -0.4932651   0.0136336
   0.0687422  -0.7660914   0.5071500  -0.0165885  -0.1774883  -0.2089819
  -1.1858947   1.5111929  -0.0556942  -0.8236105  -0.2612675   1.6050433
   0.0980790  -0.1456636   0.2837874  -0.6072724  -0.2212051  -1.5548585
   0.2949511  -0.4325971  -0.8174220   0.2062513   0.1426926   0.5747820
  -0.0330090   0.3483797  -0.0309776   0.4170119  -0.1986450   0.1205130
   0.3714261   0.5732761   0.2040426  -0.7039690  -0.4499069   0.1292637
   0.3221688   0.1038192  -0.2108910   0.2545830   0.1038135   0.8998523
  -0.2135080  -0.4812119   0.2205179  -0.5237000   0.0374542  -1.5755462
   0.8680320  -0.2819193  -1.3771216   0.0681457  -0.2799124  -0.1661551
   0.5972502   0.5176843  -0.1240009  -1.4503142   0.7779835   1.5228865
  -0.1211122   0.0190487  -0.0728671   0.8162618  -1.3888183   0.2387423
   0.3303068   0.3338059   0.7760187   0.0536501   0.2003646  -0.1636325
   0.6085909  -1.1423560  -0.6444315  -0.2083689  -0.0025869  -0.2747247
  -0.0227147  -0.3538261  -0.1547432  -0.7938102  -0.2862231  -0.5831239
   0.3548272   0.0983817  -0.5028959   0.0573502  -0.1186130  -0.3359760
   0.7904081   0.3505867   0.0239036  -0.9374215   0.0751450   0.1658799
  -0.0467073  -0.6365612  -0.2419264  -0.3752521   0.0804682   0.1047447
   0.1074127   0.1227060  -0.3438686   0.7698147  -0.5961475   0.7586465
   0.1502157  -0.0687508   0.0711907   0.0214455  -0.7404138   0.6035782
  -0.0146720   0.1385615  -0.1182107  -0.6963455  -0.3634890  -0.3738952
   0.9739757   1.8082723   0.0436698   0.4012893  -0.0164811   0.3447019
   0.2149917   0.1204054  -0.1992529   0.4680514  -0.1167096  -0.7957456
  -0.2345806  -0.0970566  -0.0209642   0.4387648  -1.3360324   1.0670681
   0.0487875  -0.1116169  -0.1705061  -0.0335789  -0.0774607  -0.0452632
  -0.8277204   0.1392138  -0.3888334  -0.2861804   0.3903164  -0.0674397
  -0.7212853  -0.6394858   1.0332152  -0.3488489  -0.0554657   0.0000253
   1.7973505   0.7963784  -0.9279895  -0.1497388  -0.0283724  -0.3439863
   0.3492894  -0.1881158  -0.1508898   0.0893935   0.2958167  -0.0656306
  -0.1725983  -0.5410266  -1.3297094   0.0475559   0.1286166   0.1851577
  -0.3218129  -0.3710954   0.2054752   0.0259099   0.0479836  -0.1250933
   1.8558119   0.7046949  -0.4342464   0.1003156  -0.7825049  -1.2945266
   0.1776777   0.0357163   0.1040032   0.3810592   0.0041463  -0.2232415
   0.4780112   0.1249137  -1.6079555   0.6134678   0.0721291   0.2572374
  -0.3573103  -0.0142311   0.0233317  -0.1514195  -0.0815915  -0.0007803
   0.1500724  -0.1903225   0.0174851   1.2335480   0.5068964   0.2206127
   0.2160922  -0.1532298  -0.2174418   0.0655672   0.1381737  -0.1913358
   0.1750285  -0.1859014  -0.1344979  -0.8101912  -0.8828380  -1.0607190
  -0.2135952  -0.1245923   0.0927481  -0.9994144   0.4094999  -0.3876836
  -0.0881540  -0.0672170  -0.0449666  -0.0166613   0.1696772  -0.2741068
  -0.3623592  -0.0916714  -0.2993470   0.0814311  -0.1591011  -0.4715618
  -0.8490581   0.3631491  -0.1244036   0.3715256  -0.7002999   1.1783567
   0.0031595   0.2270391   0.1885832  -0.7130175  -0.5301825  -0.0822280
   0.0005215  -0.1973536   0.0303189   0.0654819  -0.0421620   0.0182026
  -0.1869156  -0.0368616  -0.0313135   0.7127458  -0.1741775   0.5582745
   1.4519687  -0.0269026  -0.7443855  -0.5628680   0.1605650   1.2590525
   0.1821079   0.1701866  -0.1228771  -0.1727633  -0.6623357   0.0690286
  -1.1492065  -0.6024793  -0.5281175   0.2423173  -0.1727794   0.2084175
   0.0623146  -0.6811916   0.3404242   0.0464904   0.5591959  -0.8355427
  -0.0650723  -0.1100993   0.0629541   0.0874224   0.4507955   0.9916037
  -0.0262124   0.1900103  -0.3911930   0.0778207   0.2806293   0.1004269
  -0.0203974  -0.2566268  -0.2425014  -0.6914103   0.2637779   0.0804523
  -0.0205059  -0.0296021  -0.1962833  -0.1465531   1.0944719   0.5220846
   0.0096888  -0.1573884  -0.1155386  -0.3173726   0.7334796  -0.4347816
  -0.2037237  -0.1635441   0.7325739   1.5395265  -0.9172137  -0.4063726
  -0.1777375   0.1560028  -0.0339693   0.0194240  -0.0802577  -0.2204360
   0.1534115  -0.1807147  -0.0913022   1.7035070  -1.2044861  -0.4409925
   0.2677636  -0.1004839   0.2301791  -0.7405805   1.1523298  -0.2552675
  -0.2909654  -0.3973223   0.0901029  -0.4004913  -0.5841406   1.5301148
  -0.2328165   0.3538146  -0.3203719  -0.4246263   0.2267015  -0.1391106
  -0.1815106   1.0084946   1.0836485   0.8324750   0.3856009   0.3339923
   0.3610086   0.1131506  -0.0183057   0.5155531  -0.5284769   0.3242746
  -1.1366711   0.0265663  -0.5619025  -0.1663610   0.1005951   0.1065397
   0.3597293   0.0108292  -0.7187153   0.6610429  -0.4763321   0.7714333
   0.0170031  -0.7655857   0.1316755  -0.0652942  -0.1232460   0.0541969
  -0.1097577  -0.4345659   0.1338183   0.0175296   0.1208981   0.0235782
  -0.4637848  -0.1021331  -0.6663204   0.0789211   0.1280446   0.2951481
  -0.7024057  -0.8771785   1.3357857  -0.0835486   0.4412898  -0.1658809
   1.0711634  -1.1581183   1.2966848  -0.2255189   0.4961925  -0.5626418
  -0.0078009  -0.1073664   0.0347612  -0.7649631  -0.0536084  -1.0026585
   1.5378964  -0.5831349   1.1044072  -0.0000497  -0.0846526  -0.1791440
   0.3931493  -1.0746179  -0.5460175   0.4491940   0.3690975   1.0020897
   0.2610565  -0.3802413  -0.0760917   0.9278542  -0.7944468  -0.4382901
  -0.0950090  -0.1106588  -0.0779235  -0.4138829   0.1337823  -0.2077990
  -0.8914821  -0.1295617  -0.0463737   1.0006253   0.3897882   0.3146421
   0.2050003   0.3771790  -0.0387356  -1.0046563   1.0894458   0.6327369
  -0.5059311   0.4546988   1.4229864  -0.1165947  -0.0713997   0.1195984
   0.0325935   0.1746855   0.0425960   0.2823309   0.1401018   0.1836500
   0.4467181  -1.2556113   0.7818806  -0.0490868  -0.1060552  -0.2126349
   0.1178383   0.8112290   0.0843275   0.1783712  -0.0146549   0.0567899
   0.0832114   0.3473711   0.7583674   0.5275622  -0.7984367   0.5034444
   0.2360827   1.2641530  -0.2864998   0.0505625   0.3633243   0.0840473
  -0.2722922   0.0897039  -0.0300563   0.0317374   0.0634525  -0.1450626
  -0.4032862   0.8302519  -0.5204407   0.1232075   0.0506582   0.2859118
  -0.2833706  -0.2556995   0.1047973   0.3291118   0.0123902  -0.4593528
  -0.3062959   0.9216490  -0.5847330   0.7846392  -1.4947171  -0.2968861
  -0.0723611  -0.0029382   0.1807643  -0.1958007   0.3773418   0.4043352
   0.4420448  -0.0928780   0.7828074   0.0741185  -0.0252767  -0.0646659
  -0.1183078   0.3553085   0.1385241   0.3681673  -0.5666819   0.1210060
  -0.2147382  -0.3317910  -0.2928950  -0.1948148  -0.1393524  -0.1648259
  -0.0985611  -0.0956807   0.1230722   0.5977195  -0.5112048   0.6233135
   0.0252899  -0.2258972  -0.2695871   0.1082311  -0.4397666  -0.2534779
  -0.1982370  -0.0974177  -0.1312037   0.6267604  -0.0589685  -0.0822526
   0.1333200  -0.2706759   0.5517801  -0.2478541   0.2271849  -0.0316478
   0.5499288  -0.2091466   0.1860115  -0.5930298   0.0340875  -0.0064052
   0.8743954   0.9561866   1.4362496  -0.2299634  -0.1419148   0.4148228
  -0.3793405  -0.6573509  -1.8996913  -0.0287885  -0.3836580  -0.0914702
  -0.6596355   1.4065344   0.9626548  -0.1326446  -0.2091714  -0.0589960
  -0.0904619  -0.0285599  -0.3034519  -0.5057138   0.3194097  -0.0524534
   0.0921948  -0.6288800  -1.2608824  -0.2518629  -0.0865136  -0.1864255
   1.3316540   0.4139035  -0.6876702  -0.0966586   0.0047025   0.1944142
   0.4283907  -1.0697630   0.2399642   0.2368864   0.1754767  -0.0253760
   0.4695497   0.8742080  -0.8044212  -0.2314193   0.7104919  -1.4477932
   0.1248417  -0.7387147  -1.0381902  -0.2217506   0.1778787   0.0815957
   0.3382112  -0.2344403  -0.1916533  -0.2946339   0.1424255   0.1881703
   0.0895521  -0.0402616   0.0042588  -0.1760791  -0.1191205   0.0108441
   0.4878654  -1.2994087   0.0366300   0.1474547   0.1631062   0.1622249
  -0.0971444   0.0935155   0.1931519  -1.3416160   1.0920236   1.1916960
   0.2194523  -0.1586007   0.1546518  -0.0928638   0.0004194   0.0664429
   0.0810021  -0.1541417   0.1042863  -0.5284648   0.2074291  -0.3849875
   0.2336103   0.1916713   0.3665346   0.2958107   2.8243554   0.9375225
  -0.0834896   0.0583072  -0.3167572   0.0851669   1.3931458  -0.6997346
   1.0773481   0.1916979   0.8327492  -0.5639862  -0.4384467   0.2268062
   1.1190330  -0.3389437  -0.0916469  -0.5922175   1.8028002  -0.9308782
   0.0917209   0.1812278  -0.2002054   0.9555368  -0.2869188  -1.1972613
  -0.2742776   0.5318268   1.1750898  -0.4818357  -0.4217550  -0.2188153
   1.2679384   0.5866270   0.2351500  -0.2170554   0.1045978  -0.1861395
  -0.2636711  -0.0201161  -0.1279864  -0.6933057  -1.2945789  -0.6848830
   0.8786325  -1.0087871   0.3893638   0.2197281  -0.1381511   0.2003189
  -0.9915240   0.5338139  -0.6902040  -0.3769403  -0.9446785   1.6159450
   0.0201056   0.2337110   0.3985409  -0.0109820   0.1924151  -0.3034598
   0.0356050   0.0952384  -0.1424207   0.6593432   2.2516003  -2.0736021
  -0.3357943  -0.0663412  -0.0807219   0.8937766   0.9057727  -0.3768424
  -0.0866739   0.1189827   0.1434020  -0.0579044  -0.9507821  -0.3346968
  -0.7717789   0.1630689   0.4417521   0.2159315  -0.1719829   0.0062790
  -1.2718861   0.6342488   0.6860060   1.1785524   0.1895422   0.1350304
   0.1434765  -0.0950291  -0.1688263  -0.0071383  -0.0701657   0.1299193
  -0.1530222   0.0648297  -0.2893708   0.1085688  -0.2879832   0.2231616
   0.3341482   0.3393112   0.1385734   0.2335563   0.0320611   0.1745052
  -0.3928325   0.1885538  -0.5188241  -0.1210982  -0.2367630   0.2225823
   1.0312170   0.3986058  -0.3392289   0.1409694  -0.0986890  -0.0025179
   1.8840576   0.2458154   0.3683103  -0.0971652   0.0617036   0.1943415
  -0.5745944   0.1998349  -1.0635524  -1.1033407  -0.1792311  -1.0250814
  -0.2659179  -0.8310126   0.5826458  -0.1271364  -0.3801520   0.2330872
  -0.3599177  -0.4170283  -1.0212771  -1.1758064  -1.4213700   0.8231977
   0.0016060   0.0008601   0.1965649   0.0349604   0.2853744  -0.1311105
  -0.4986475   0.3731745  -0.0447979  -0.5058882  -0.7656572   0.8565765
  -0.1531227  -0.3158194  -0.4427399  -0.0383255   0.1070047  -0.0565699
   0.2714702   0.0628352   0.0622941  -1.0193739  -0.8283385   1.2752947
  -0.2415882  -0.0691389  -0.2394685   0.4149188   0.5063956   0.1492736
  -0.0867426   0.4269943  -0.0370105   0.1146968  -0.1574289   0.0595021
  -0.2879110  -0.0279805  -0.1901561  -1.2709805   0.2625311   0.3842871
   0.0028236   0.0778381   0.0390399  -0.2813705   2.6052425  -0.1637032
  -0.1517264   0.3506241  -0.0793885  -0.8067787  -0.7619639   0.1815620
   0.5248487  -0.5361585   1.2922970  -0.0660729  -0.1158771  -0.6955190
   0.1873371  -0.0378099  -0.0651146   0.2068096   0.4020547   0.2741252
   0.0224871  -0.1840996   0.1747201   0.3885755   1.6075333  -0.1314536
  -0.5016603  -0.0976223  -0.0397723   0.8976995   0.3857956   0.8364537
   0.1934769   0.0354949  -0.0744577  -0.5822112   1.0076116  -0.3437188
  -0.0060140  -0.0857596   1.1485601   0.0953751  -0.0923820  -0.2134152
   0.0268061  -0.3197626  -0.1120290  -0.2756311  -0.1738766   0.0013482
   0.3966762  -0.1034533  -0.1329937   0.0675933   0.0022529  -0.3669151
   0.0111349  -0.2081054   0.4207051   0.8221259  -1.0132000  -0.0609929
  -0.2021243   0.2837056  -0.1990779  -0.3655492   0.3915256   1.3594653
  -0.2517092   0.3036656   0.3064453  -1.1542234  -0.3396763   1.6367074
  -0.7127795  -0.5127357  -0.2959449   0.2272671   0.1218735   0.4127477
  -0.1385204  -0.8526454  -0.6179208  -0.0225981  -0.1361637  -0.4683316
  -0.0847043   0.4354149  -0.0266743  -0.6937638  -1.3937749   0.4263778
  -0.4184172   0.8410708  -0.4533329  -0.0245978   0.1280004  -0.2156683
   0.5177663  -0.2300110   0.0990714   1.2130965   0.3311559  -0.0304533
  -1.1962207   0.0793641   1.0496754   0.1883814   0.5307738  -0.4513987
  -0.2454385   0.2946855   0.1355087   0.3188265  -0.0159576   0.1325542
   0.7195679  -0.3483793   0.2800936   0.2214246  -0.3178720   0.3049009
   1.1494313  -0.7632000  -0.2699090  -0.3478169  -0.2830218   0.3390259
  -0.9995002  -1.3590332  -0.3872282  -1.2341363  -1.1622319   1.0642921
   0.0383051  -0.1023564   0.0951945  -0.4665904  -0.5102384   0.5154490
  -1.5887652  -0.8950924  -1.9416315  -0.1919818  -0.0596835   0.2037238
   0.0877167  -0.4446885   0.0036747  -0.4024014   0.8078661   0.0898013
   0.1537634  -0.8355021  -0.3565333   0.6572841   0.2138767  -0.5211724
  -0.1139452   0.0248617   0.1236282  -0.2051808   0.0049199  -0.2122285
   0.0965717   0.1810223  -0.2146955  -0.7068644  -0.7679192  -0.1724022
   0.0144366   0.3374810   0.3120740  -0.8983169   0.6140089   0.2518339
  -0.2361863   0.3319263   0.1588649  -0.9482694   0.6413056   0.2408324
  -0.2070980  -0.5714962   0.4956294  -0.1726340  -0.0400856  -0.2394551
   0.5966319  -0.0225605  -0.3642142   0.2949662  -0.4423241  -0.2341369
  -0.0595638  -0.0877132  -0.3948692  -0.2001882   0.1840779   0.3226490
   0.5678490  -0.2610365   1.4122680  -0.1971248   0.0557212   0.0001709
  -0.4295292   0.2829894   0.0042235  -0.0294781  -0.0003312   0.1957140
  -0.7599036  -1.1130318  -0.0349774  -0.6238590   1.4179982  -0.5565555
  -0.5974210   0.2152279  -0.0022411   0.3819946  -0.0712130   0.2249027
  -0.0769958   0.0917068  -0.1151685   0.4707275   1.3447101   1.2565746
  -0.1643542  -0.0572925   0.0972840   0.1381554   2.5886367  -0.6888279
  -0.2927952   0.4232389  -0.0003506   0.6208393   0.1354865   0.7763798
   0.0733233   0.1236923  -0.1668797   0.1598133   0.2528383  -0.0333695
  -0.1275538  -0.2092474  -0.2917664  -0.0107276  -0.9204082  -1.0804967
   0.1921027   0.5182349  -0.1880871  -1.0786470   0.4736451  -0.3004468
  -0.0724338  -0.0074888  -0.2023518  -0.2912860   1.0975723   0.9307006
   0.8479286  -0.2438184   0.8643224   0.8284988  -0.5543257   0.3809409
  -0.2885807   0.1132789   0.2029297   0.1393622  -0.0438560  -0.0084468
   0.2233581  -0.3503924   0.1222960  -0.3743041  -0.0686983  -0.0739651
   0.0153873   0.0495422   0.2891763   0.6047995  -0.3398990  -0.8277707
   0.1202029   0.3883465   0.0264186  -0.9274156  -0.4830341  -0.0234131
  -0.0043162   0.0048358   0.5277546   0.1186834   1.9062895   0.8923457
  -0.0056319   0.6747779  -0.2392479  -0.2227572  -1.0302517  -0.7565072
   0.1145889  -0.3383728   0.1346166  -1.0803054  -0.0750914  -0.5185971
   0.1723852   0.3327801  -0.1242256  -0.1183397  -0.0630429   0.0168959
   0.1186230  -0.0618099  -0.2838493  -0.6494263   0.5634797   0.2421176
  -0.0700456  -0.2594189   0.3677408   0.0515864   0.1875285   0.3670084
  -0.0518103   0.2249978   0.2202178   0.4872794   0.9827243   0.4761718
  -0.6844042  -0.7063727   0.4521356   0.2451986  -0.3676395   0.0551649
   0.3234749   0.0054878   0.2195616   0.8325304   0.3603295   0.3683677
  -0.1657511   0.1142483   0.4915300  -0.1635773   0.4095128   0.5256892
   0.0537369  -0.2344920   0.4863908   0.0402714  -0.0502929   0.1754098
   0.1262945   0.1228561   0.1143709  -0.1461666  -0.9146100  -0.8859149
  -0.1129118   0.2122768   0.0862446   0.7329062  -0.5067316  -0.1899537
  -0.3125142   0.1931701   0.0300762   0.3040491   0.0142333   0.0919368
  -0.1515937   0.1876631  -0.5623280   1.4971167  -0.7338730   1.1840466
  -0.0275353  -0.0270170   0.1648212   1.3593100  -1.4063727  -1.6148472
   0.1671556   0.2143802  -0.2122502   0.2052995  -0.4674660   0.3513477
   0.1339508  -0.3781564   0.4680509   0.8316455  -1.2320061  -0.4088370
  -0.0548500  -1.3272378  -0.0291842  -1.1053175   0.4214168   0.2031320
  -0.1835503   0.2127721   0.0668061  -1.4543553   0.2049002   0.0493293
   0.1186794  -0.1619429  -0.0310568  -0.1910806   0.0784605  -0.0565668
  -0.2652597  -0.0080427  -0.0057533   0.1684290   0.7202055  -1.6762678
  -0.1454662  -0.0302777  -0.0349389  -0.6229665  -0.0870077   1.0030289
   0.3472755   0.1422627   0.1563047  -0.6298516   0.0222570  -1.4306008
  -1.0551176  -0.0815398  -0.9151845  -0.0675858  -0.0713282   0.1220805
   0.5820623  -0.6504630   0.9226419   0.5026850  -0.9382598   0.2090335
  -0.0851986   0.1901262   0.1240648   0.1448212   0.4039005  -0.1279463
  -0.0886205   1.4111388  -0.7806071  -0.8718435   0.2113066  -0.2164987
  -0.1621082   0.7596667  -0.8235533   0.2075562   0.2125676  -0.4645982
  -0.2785304  -0.0209338   0.1232015   0.3025071   0.2959102  -0.1322590
  -0.8947916   2.1820380  -0.9897205   0.0716159   0.2026910  -0.1753895
   0.2875474   1.3344697   0.2550158  -0.0763272   0.1221485  -0.0391254
   0.1883937   0.6180100  -0.1441818   0.4261259   1.6969399   0.2283038
  -0.0386257   0.4473617  -0.0616942   1.0365636  -0.2938798   1.2339618
   0.6078396  -0.2468633  -0.4164789   0.1104982   0.2221684  -0.2480054
   0.7368261   0.4771473   0.5784939  -0.3893937   0.5832035  -1.0615429
  -0.0547293   0.1918959   0.0167569   1.2567085   0.3417374  -0.7469018
   0.3702729  -0.0731657  -0.0788332   0.2005821  -0.0802843   0.1901141
  -0.3316859  -1.0201425   1.6054302   0.0222935  -0.5029927  -0.7171436
   0.1712908  -0.1137430  -0.1113114  -0.7448280   0.5029780   0.9415260
   0.3006485  -0.4733476   0.2230983  -0.2080928  -0.3024296   0.3035285
   0.1194764   0.0076023  -0.0744035  -0.2144094   0.1009761   0.1182772
   1.4969529  -0.5468002  -0.0546020  -0.0626505  -0.0862521  -0.0822667
   0.2112749  -0.0884790   0.7128425   0.2350108  -0.1892313   0.1432914
   0.7476743  -0.6203496  -0.6214804  -1.2984283  -0.3420007  -1.6934390
  -0.0919333   0.3086912  -0.2269370   0.2385182  -0.1623519   0.0382021
   0.0153641   0.0621214  -0.1596096   0.1238308  -0.4192170  -0.0273163
   0.9486484  -0.1278532   0.8213608  -1.2072014  -0.6427014   0.2099761
   0.4084464   0.2901246  -0.0748166   0.5954832  -0.4391138   0.5077972
   0.8053421   1.9478475   1.2250965   0.1898767  -0.1706457  -0.3231067
   0.1257980  -0.0122335  -0.3215408   0.2281078  -0.2446517  -0.1575005
  -0.3522731  -0.4877600  -0.1442203   0.3935621   1.7673111   0.0130421
   0.2820441  -0.2444692  -0.3480865  -1.8037437  -0.4644377   0.5462453
   0.0599609  -0.1198841  -0.0527957   1.5239439  -1.5055103   0.5371126
  -1.7322264   0.9229475  -0.4225456  -0.1255662   0.2938923   0.1164050
   1.2874934  -0.0665032  -0.3717614   0.3772240  -0.0097520  -0.0680670
  -0.3736469  -1.3822088  -0.5588991   0.6203032   0.5183880  -0.8097354
   0.4727775  -0.5797420   0.1072442  -0.1197209   0.0909364   0.3534783
   0.8045449  -0.6193666   0.0998308   0.8311393   0.2389209  -0.5384134
  -0.1023019  -0.4136114   0.4093001  -0.1866868  -0.1032954  -0.1941022
   0.0250510   0.2803316   0.0178620   0.1538029  -0.4555090   0.2222063
  -1.2583535   0.5934210   1.0510646  -0.2600002   0.1549707  -0.0439122
  -0.9820216   1.6981882  -0.3676201   0.0382224   0.2513091   0.2988466
   0.3011807  -1.4221351   0.8384006   0.6898434  -1.2701124   0.2388354
   0.1090568   0.3203486   0.0620346  -0.2036314   0.7689435  -0.0327307
   0.1007100   0.2481933   0.1390561  -0.1278257   0.4442794   0.0673441
   0.0118053  -0.2028156   0.4273783  -0.1198060  -0.1156352  -0.0767176
   0.1807609   0.7338603  -2.1370295   0.2608053   0.3529949   1.9364543
   0.1726728  -0.1437802   0.0070642  -0.7714877   1.6106924  -0.1464620
   0.4052464   1.9620636   0.3630013  -0.2176772   0.1701607   0.2998590
   0.5257770   0.9419703  -0.2385505  -1.2302668  -0.0357962   0.2347400
  -0.1142180  -0.0646570  -0.3044562   1.4793380   0.1895579   1.2033831
   0.0533392  -0.1608429   0.0820497   0.0153053  -0.2842823  -0.4095332
  -0.2046158   0.0394413  -0.3800130   0.8275044  -0.2990184   0.7382693
  -0.0020505   0.0136419   0.0179996  -0.9813100  -0.2466493   0.2468817
   0.0451758  -0.3145892  -0.2521118   1.5360941  -0.1564756  -0.4030757
  -0.0775941  -0.6086193  -0.0362503   0.3069609   0.1448771   0.5574636
  -0.0507732   0.0916542  -2.1611679   0.3806990  -0.2638873   1.3175839
  -0.3938323   0.1296562   0.0118092  -0.2222546  -0.8926232  -0.4569354
  -0.3225356   2.0727783  -0.8724071  -0.0754604  -0.1317890  -0.0866017
   0.1036714  -0.0566670  -0.2847211  -0.0653370   0.0461351  -0.1747195
  -0.0121011   0.1610575  -0.2871199   0.0936684   0.3886553   0.0109072
   0.0520870  -0.3044585   0.0854643  -0.9571427   0.8588426  -0.3210694
  -0.1600290  -0.0831795   0.1856014   0.1063054  -0.5462794   0.9097474
   0.5087044   0.0668040  -1.2735566   0.1737794   0.2228496  -0.3784883
   0.5238451  -0.5319288  -0.9864255  -0.5669479  -2.0251707  -0.1978923
  -0.1433675  -0.0528707  -0.2333326  -0.6034591   0.0314996   1.0181375
   0.2944236   0.0744151   0.3820976   0.0264966   0.0847878   0.2015344
  -1.3363559   0.2464625   0.4189745   0.5212104   0.0835237   0.0176291
  -0.3325728   0.0372331   0.1028393   0.3587130   0.2684328   0.5388406
   1.0807829   0.4256660  -0.2174219  -0.1038718   0.0731626   0.2674586
  -0.7731289   0.5621204   1.3239950  -0.7057097  -0.3793738  -0.2713939
  -0.2281623  -0.1443696  -0.2558651   0.1484249   0.1815307   0.2781574
   0.2221083  -0.0583612  -0.1415678  -0.6382326   0.6813757  -0.7417175
   0.0446072   0.4015127   0.2895960   0.6963972  -0.7100325   1.1292392
   0.1139486  -0.2589520   0.0459444   0.0561543  -1.1722901  -0.5092216
   0.1590119   0.2564771  -0.4337245   0.7075938  -2.2893235  -0.1930860
  -0.1754859   0.1925183  -0.0844592  -0.4999110   0.0404882   0.5811645
   0.4102446   0.1819152   0.1852306  -1.6298570   0.3961298  -0.3676605
  -0.1497349  -0.3068078   0.3723111  -1.0358490  -0.5598368   0.4635858
  -0.1185182  -0.1604134   0.0574963   0.1669329   0.0667396  -0.0854780
   0.0140785   0.0037186   0.0953338   0.2079426  -0.1162220   0.1809674
   0.9153810  -0.0239610  -0.7370563   0.2127678   1.1455298  -1.0275306
  -0.1029354   0.2427426  -0.0801299   0.1349503   0.6738736  -0.7995821
   0.3510362  -0.0414162   0.5113603   0.1516673  -0.1465767  -0.1963851
  -0.0060037   0.4216751   0.2662368   0.4208952   0.3264525  -0.6245683
  -0.2533967  -0.0650971  -0.0446267   0.9397820   0.3800700   1.1467509
   0.0989191   0.2541546   0.1906833  -0.1340320   0.1119036   0.0208200
  -0.0759580   0.1216531  -0.1588400   0.9894521  -0.2962633  -0.2356118
   0.2355255   0.1479369  -0.3406943   0.3208045  -0.7983877  -0.6984142
   0.0978390  -0.1724017  -0.0518860   0.4778084  -0.2797910   0.1609315
  -2.0527150  -0.7750856   0.2150714  -0.1202264  -0.1101783  -0.0822715
  -0.0861427  -0.1099137  -0.1773326   0.1046399  -0.1328203  -0.2272414
  -0.4086840   0.7418636  -0.7838831  -0.6067434   1.1063170  -1.0370411
  -0.0224952  -0.0061110  -0.0877069  -0.2839488  -0.0401159  -0.0462603
   0.3159450  -0.0804133  -0.2164423   0.8176100  -0.0820576   0.9778440
   0.0343018   0.1154321  -0.0727604  -0.5747408  -0.9966863  -0.6268974
   0.0141412   0.2649310   0.2155519  -0.0871186   0.1416751   0.9470648
  -0.3848978   0.7981880   0.9968291   0.2892254  -0.0049065   0.1492021
  -0.2428073   0.0949052  -0.0985736   0.8979122   1.5724100   0.5368174
  -0.2010307  -0.1793327   0.3054917  -0.0355497   0.6056269   1.2458135
  -0.0214986   0.5415397   0.1869065  -0.2116605  -0.4445472   0.1403310
   0.5687067  -0.9289165   0.0300485  -0.1848035   0.1340716  -0.1027628
   0.3000693  -0.4527588   0.3302347   0.1704527  -0.1329608   0.1518688
   0.6013532  -0.4658982  -0.2383621  -0.3534595  -0.3668996  -0.3424496
   0.0883617   0.0741273  -0.0963061  -0.0921532  -0.0281345   0.0133200
   0.0183313   0.6430012   0.2672334  -0.0902192  -0.3006517   0.1905869
  -1.3707797   0.7448291  -0.5918202  -0.0100535   0.1913518  -0.2447295
   2.1486678  -0.6488922   1.2568592  -0.2289528   0.6070835   0.3256760
   0.2658050   0.1426096  -0.0681573  -0.0670165  -0.2844995  -0.1699245
   0.0750091   0.1928886   0.1749811  -0.0043871   0.0944510   0.0764939
   0.3728787  -0.7685521  -0.3413002  -0.0311515  -0.0636270   0.0672191
   0.2449022  -0.1255156   0.3288947   0.2592875  -0.3371147   0.1265615
  -0.0197653   1.1283082  -0.0910892   0.2088459   0.2528411  -0.1504945
  -1.4804089   0.3058414  -0.0402079  -0.2327779  -0.2519711   0.0217577
   0.4921842  -0.5806548   0.4070334  -0.0293700  -0.9147050  -0.0482000
   0.0010361  -0.0140373   0.0002639   0.4641818  -0.4580878  -0.3485090
  -0.1726129  -0.1624384   0.0192751   0.4981242   0.7302502   0.9003384
  -0.1449839  -0.4651552  -0.3681253   0.5015348   0.2254145   0.9903913
   0.2106608  -0.0439797  -0.2104125   0.0720319   0.8097446  -0.7565091
  -0.5456489   0.0483702  -0.5874624  -0.6427239   0.6098775   0.3880115
  -0.0618499   0.3357758  -0.0534233   0.0865755  -0.2898441   0.2023585
   0.0810341  -0.1137001   0.2251723  -0.4359041   0.1180205  -1.2721574
  -0.1550284  -0.2161376   0.0453501  -0.3409443   0.2663257  -0.6028564
  -0.0422313   0.2585693  -0.4064274  -0.6843325   0.1457368  -0.9508705
   0.1597051  -0.1266508   0.2626342   1.3970973  -0.4853459  -0.4887399
  -0.5643909  -0.2653022  -1.6442788  -0.3599586   0.3876056  -1.1098549
   0.0877141   0.1896101  -0.0133628   0.0002528   1.2492872  -0.2570485
   0.7044731  -0.1281892  -1.4991638  -0.3510228   0.3259715   0.2064564
  -0.2036709  -0.6970552   0.0749261   0.5645040  -0.5231678   0.6834724
  -0.2274178  -0.1478602   0.6366369   0.1933372  -0.1845595   0.3600083
  -0.1791103   0.0518388  -0.3473960   0.0306177   0.1034564  -0.2698916
  -0.2869696   0.3521223  -0.1506865   0.1656377   0.3059555   0.0567123
   0.9316615   0.2518197  -0.2257526   0.2039414  -0.2282603  -0.2986737
   0.5662930   0.9209699   0.8864073   0.1337113  -0.2451362   0.0844808
  -0.7959772   0.6340277  -0.4825780   0.1501427  -0.3965790   0.0347577
   0.7770178   0.1590067   1.3830093   0.1120168   0.0663352   0.1850478
   0.6432931  -1.2089725  -0.1924615  -0.5888009  -0.3991998   1.4246525
   0.1438818   0.2594764  -0.0057361  -1.3583856  -0.7975250  -0.1496701
   0.6411114   1.5786817  -0.3339838  -1.4747679   0.3832237   0.6387149
  -0.3530062   0.2361297  -0.2168354   0.3365395   0.0476318  -0.0540371
  -0.1574916   0.2221551   0.1888193   0.2673298   0.7725479  -0.7329992
   0.0522360   0.1273900  -0.0006854   0.2073875   0.4171293  -0.4133644
   0.0411752   0.0833682  -0.0751819   0.5501451  -1.1050943  -0.1681121
   1.0094856   0.8787464   1.3210503  -0.4748655   0.0907681   0.0849578
   1.4128586  -0.3965423  -0.4226182  -0.5198623  -0.4278682  -0.1136661
  -0.0891136   0.0405795   0.0265081  -0.1518374  -0.2313058  -0.3258271
   0.8133613  -0.2073003   0.4637617   0.6834176   0.5312215  -0.3320502
   0.1232906   0.2750167  -0.4947866   0.3605803   0.5965115   0.0686950
  -0.0746321   0.1680808  -0.3305494  -0.1700720  -0.3346999   0.1978591
   0.1625619   0.3731977  -0.0678110   0.1596559  -0.2455655  -0.0567452
   1.0091675  -0.0689451   0.3819791  -0.2656344   0.1651697   0.0260021
  -0.9599933  -0.3395511   0.8762002   0.3331900   1.6187347   0.7600480
   0.1893562  -0.1233183  -0.2762170   0.1563927  -0.0111034   0.0098108
  -0.0384029  -0.2620055   0.1459788   0.2699762   0.1112765  -0.2646849
  -0.1145928   0.3650094  -0.2805171   0.2778753  -0.2603325   0.1111059
   0.1848813   0.5509260   0.2594404   0.2651812  -0.2037121   0.1922671
   0.2314769   0.0289762  -0.6474932   0.1429916   0.0541649  -0.4375555
  -0.4774929   0.5968325   0.4281295   0.6699817   0.0413764  -0.8182709
   0.1776160   0.2212385  -0.3165164   0.6912013  -1.0487651   0.6192292
  -0.5449645   0.1475507  -0.0382214  -0.4216533   0.4696440   0.1351392
   0.1061661  -0.0312798  -0.0462833   0.0956758   0.2485124   0.0257048
  -0.0407684   0.3174399   0.1178790  -0.1111759  -0.0695422   0.0586552
  -0.4460349  -0.2111065  -0.2845721  -1.6475315  -0.5130211   0.0058863
   0.1044072   0.1978045   0.0572359   0.1136783   0.6651527   0.7082957
  -0.2861545  -0.2157233  -0.0240007   0.1374613   0.2407954  -0.4585355
  -0.2660995   0.4540349   0.0666543  -0.9288312  -0.5413500   0.2438330
   0.3254902  -0.0778195  -0.0943682  -0.2355690  -0.0215737  -0.1421732
   0.0757143   0.1628121  -0.1415701   1.6829947  -0.0574001   0.6301406
  -0.3869955  -0.2358179   0.4151343   0.5599763  -0.1795261  -0.8243417
   0.0420415   0.2566115  -0.0170973   0.6691270   0.1651681  -0.3275600
   0.4962043  -0.0032710  -0.0470510   0.1592808   0.3682010  -0.5383659
  -0.2091564   0.1124176   0.4674625  -0.0697034  -0.4842236  -0.4251836
  -1.1694628   0.3890640   0.0169634  -0.0296122  -0.0513186   0.1917575
  -0.1420137   1.3998856   2.1140670   0.2422263  -0.0393486  -0.2306747
   0.3455150  -0.8001612   0.2184212   0.3233750  -0.0387783   0.1717078
   0.2025936  -0.0298740  -0.1088237  -0.1403526  -0.1953416   0.1327694
   0.9634292  -0.4463825   0.6658310  -0.7038531   0.2148638  -0.0224044
  -0.6050557   0.2707246  -0.4409370  -0.0539151  -0.0651242   0.1675415
  -0.5879104  -0.2937661  -0.9506828   0.3990560  -0.5376395  -0.1914022
  -0.1219736   0.1884161  -0.2542695  -0.3158913   0.0012272  -0.0649546
   1.8534425  -0.4106658  -0.5117558   0.0007024  -0.1729545  -0.0768390
  -0.2616758   0.6025939  -0.5753876  -0.2583608  -0.2333522   0.0634384
   0.5471590   0.3369227   1.2760682   0.2388847  -0.3026404  -0.4257167
  -0.0849987  -0.1157239  -0.1589936   0.2663936   0.2724349  -0.1787874
   0.4901502  -0.0542767  -0.0878415   0.0044516   0.0758367  -0.4462300
  -0.0303625   0.1385178  -0.3840128  -0.2324306  -0.3717442  -0.0973631
  -1.3450178  -0.5461833  -0.1806441   0.0905849  -0.0952755  -0.0463266
   0.3186859  -0.2234424   0.1899435  -0.1408544   0.2790958   0.3035848
  -0.8978044   0.4509235   0.2194479  -0.1701522  -0.2383859   0.1518818
   1.1690935  -0.2944989  -0.0775706  -0.0446192   0.5430561   0.4983106
  -0.3444820   0.2029663   1.0961437  -0.3196030   0.0808083   0.0849076
  -0.2725459  -0.5103578   0.3155200   0.1777137   0.0106702   0.1398064
  -0.2271193   0.1730456  -0.1278355   0.0381463  -0.2878156   0.0674258
   0.3568988  -0.7409836   1.1506258   0.1294411   0.1887820   0.0242618
   0.8046954  -0.3290625  -0.1802531  -0.1151852  -0.1111875   0.2392261
   0.7080806  -0.0743651  -0.0582279   0.9886447   0.0605857  -0.5411982
   0.4700462  -0.1271401  -0.0106974  -0.0014544  -0.4150439   0.0875918
   0.0987832   0.1399230   0.2465761  -0.3282322   0.0077214  -0.3828579
   0.2204212   0.1489911  -0.0154957   0.1098040   0.1762897  -0.5433931
   0.1709676   0.0344567  -0.1846736  -0.7564938  -0.3871778   0.7912254
  -0.3905434   1.7513827  -0.3024287  -0.5804180   0.3685876   0.0704647
  -0.4974484  -0.2119302   1.3430315   0.5283707   0.7730652  -0.7124491
   0.1119384   0.0089626   0.0153375  -0.2338584   0.0740340   0.7762253
   0.7721098   1.4076229   0.4668164   0.0939738  -0.0568417  -0.0595632
   0.4560080   0.0901013  -1.6581772  -0.0394164   0.2349224  -0.1836266
  -0.0867692  -0.0696656   0.2641859  -0.0610000  -0.0555244   0.2238456
   1.3777685  -0.1561612  -1.7584955   0.0537269   0.0507295   0.1228433
   0.2947509  -0.1717638   0.8490865   0.1660902   0.0418318   0.0496736
  -0.6144293  -1.3391737   0.4563952  -0.0274859   0.8222852  -0.3581445
  -0.0581797   0.5601390   0.6627303   0.0012461  -0.1793964  -0.0182944
  -0.1447187   0.2147033   0.0335647  -0.0821042  -0.0880058   0.2198458
   0.2715959   0.6571706   0.0845132   0.2110030   0.1792388  -0.1667028
  -0.7555388  -1.1485856   0.1808158  -0.2001177   0.2304830  -0.3393509
   0.4843239  -1.0174276   0.4405780  -0.4289302  -0.4927758   0.4423935
  -0.2627511   0.2561854  -0.1029436  -0.5516113   0.4224022  -0.0239919
   0.0482497   0.1720309  -0.2001501  -0.0918935   0.1333907  -0.2806369
   0.2710629   0.1750434  -0.1085009  -0.1605867  -0.8143675   0.2595138
  -0.2260879   0.4021824   0.2326158   1.2375481  -0.0145405  -1.0145376
   0.0788683  -0.3352322  -0.5130600  -0.1151396   0.2819957  -0.7905867
  -0.1859045   0.1903704  -0.2709746  -1.0518007   2.0657681   0.4598414
  -0.3138514   0.1487730  -1.0565537   1.2325309   1.8832157  -1.4897114
  -0.2393856   0.0887758   0.1148563   1.0773352  -1.0309709  -0.6111403
   1.6006488   0.2759439   1.2525476  -0.1387134  -0.1541409   0.2994672
   0.5370371   0.3809987  -0.3874806   1.0189668  -0.9804465  -0.6472276
  -0.6517108   1.8577578   0.1310075   0.0553579  -0.2238606   0.0469422
  -0.0238759   0.2306583  -0.1631128  -0.1443408  -0.0274457   0.4523088
  -0.4507053   0.1084185   0.1756127   0.1912648  -0.0017815  -0.3281912
   0.2334012   0.2509727   0.0821049  -0.1935719  -0.2392360   0.1843454
   0.0091314   0.5878598   0.4161761   1.2318606  -0.5448339  -0.7144491
   0.4472734   0.8621565  -0.3672272   0.1272795   0.0680345  -0.1999309
  -0.1433178   0.1984264  -0.0739662   0.0549104  -0.2151005   0.0884653
   0.4702115   1.3944005   0.3226575  -0.0747851  -0.0476441   0.0596223
   0.0958332  -0.6391575   0.4381991   0.0690422   0.0090286  -0.2261927
  -1.9862925   0.5542513   0.4119214  -0.3115487  -1.5999358   0.3554414
   0.8536486   0.2991180  -0.9661948   0.1596555   0.0307965  -0.1736472
   0.3595727  -0.3291327   0.1247479   0.3816176  -0.3228548   0.2094851
  -0.2471478   0.8276686   1.2288709  -0.0149277  -0.2988615   0.2166192
   0.2016263   0.3979865   0.3421845  -0.0074387  -0.3846996  -0.2129058
  -0.5144346   0.4914261  -0.9418527  -1.9658651  -0.1639469  -0.4997589
   0.2336904   0.3262512  -0.1330917   0.8736626  -1.0246278   0.6298690
  -1.1290722   0.6846570  -1.2358836   0.0421403  -0.2098146  -0.1402710
  -0.5346263   0.8475160  -0.6354113  -0.6288785   0.1641176   0.8790083
  -0.1462497   0.0327642   0.1670374  -0.7095869   1.1719201   0.8162982
   0.1674454  -0.4138837   0.1670030  -0.0990535   0.1671092  -0.0967342
  -0.0643078   0.0150475   0.1695204   0.2548960   0.2521709   0.1580170
   0.0347584   0.0305800   0.1950340  -0.4301193  -1.4183959  -0.1444783
   0.9717706  -1.3283887  -0.5952345  -0.1784579  -0.5386218   0.0577393
   0.0764827  -0.1419561   0.1311731  -0.2429309  -0.0375594   0.0851957
  -0.0230959   2.0804611   0.0506873  -0.0953978  -0.2606257  -0.0808104
  -1.1220073  -0.5325324   0.4024998  -0.4873575   0.0219683   0.0461609
   0.4428493  -0.3404508   0.0396395   0.1683076   0.2301935   0.3616130
   0.0610763  -0.1710599   0.1136465   1.6274764   2.0127672   0.7201541
   0.0639033   0.2025209   0.0441378  -0.3351750   0.9363202  -0.2178028
   0.3858443  -0.1287175  -0.1950547   1.0857284  -0.8597910  -0.9705889
   1.2432475  -0.5460049  -0.2529474  -0.0235244  -0.0992376  -0.0380176
   0.1042294  -0.1313887   0.1315114  -0.6905068   0.1099086  -0.3468772
  -0.2807353   0.0622037  -0.6337540   0.5878601  -0.2940378   0.0704530
   0.0189054   0.0693955   0.1124367   0.2102101   0.1317056  -0.4731036
   0.4385102   1.7665372   0.1354333   0.1095581  -0.2829117   0.0311993
  -1.0548892  -0.2721013  -0.2901171   0.2311368   0.0145675   0.0493150
  -0.2102627   2.5076284  -0.7542048   0.2285939  -0.2332095   0.0579302
   0.0019319  -0.1223929  -0.1955538  -0.1900464   0.2548405   0.3221528
   0.2302108  -0.1423309   0.1716352   0.2941739   0.0105127  -0.2168062
   0.6036071  -0.3994578  -0.5588933  -0.0522972  -0.1529962  -0.1746369
   0.4273751  -0.6817253   0.6143983   0.1657887   0.1587309  -0.0630687
  -0.9985528  -0.6046642   0.3839716  -2.0006774   1.0068846  -0.6829841
   0.4502074  -0.4882911   0.2958087   0.0491624  -0.2079608  -0.2762752
   1.0756106   0.6916889   0.7338723  -1.0384506  -1.3763640  -0.6407912
  -0.1018957  -0.2138956  -0.0073503  -0.3459488   0.6472142  -0.8548217
  -0.2068979   0.9257782   0.0496015  -0.5499364  -0.4575797  -0.3501336
  -0.1829733   0.0200047   0.3053841   0.2386777  -0.2287036  -0.0271603
   0.0173984   0.1810599   0.1315895   1.2416599  -0.5120448  -0.0025477
  -0.0363167   0.2384091  -0.1136608  -0.1899908  -0.9184932  -0.8669764
  -0.0209897  -0.2857272   0.1444174   0.1986902   0.9693458   0.5852737
  -1.6177876   1.1579929  -0.1395233   0.3259407  -0.2586439   0.2356049
  -0.0302547  -1.6097445  -1.7044129   0.0313007   0.2284866  -0.0826621
   0.0231134   0.0840124   0.0565804   0.0331969  -0.0263042  -0.1748510
  -0.2168744   0.1284080   0.7802428   0.0053028  -0.1579166   0.2236260
  -1.0819137  -0.4820451  -0.1481830   0.2337364  -0.1287075  -0.0998680
   0.0910865   0.0710373   1.9689700  -0.3023319  -0.2263894  -0.0380608
  -1.1808632  -0.0170680  -0.7003903  -0.6881815   0.1144647  -0.2567860
   0.7000551  -1.8254944   0.3333812   0.1643794   0.1426357  -0.2300218
   2.0531988   0.3415445   0.7447958   0.0078612   0.0541744  -0.0148281
  -0.0155269  -0.2019136   0.0393407  -0.1219663   0.1040203   0.0041915
   0.2846644   0.5170960  -0.5544975  -0.0890292  -0.0866221  -0.7001444
  -0.7925563   0.4981156   0.0900476  -0.2527581   0.2220492   0.4649000
   0.5156882  -0.4395233  -0.1404906  -0.2173632   0.0873427   0.3174340
  -0.1671351  -0.3675544   0.0217380  -0.0632784   0.5823357  -0.4352410
  -0.3656492  -0.5457430   0.9601336  -0.4111017  -0.1802129   0.0454493
  -1.2120698   0.4110631  -1.0726151   1.7147017  -1.0071512   0.2486612
   0.1222593   0.2322492  -0.2629108  -0.7210680   0.1478612   0.8031091
   0.1202175  -0.1790089  -0.4798420  -0.0149511  -0.2789582  -0.0504607
  -0.9213830   0.1572766  -0.0395453  -0.0010671  -0.0396988  -0.4742973
   0.1036143   0.0229370  -0.1686467  -1.3703197  -0.3427358  -0.1483973
   1.5126879  -0.9191981   0.3316413   0.0178372  -0.1231698   0.0418066
   0.3018936   0.2692125  -0.0515135  -0.3640938  -0.0985113  -0.3163184
   0.6103717  -0.3362196   0.0309071   0.4139992   0.0774000  -0.2336871
  -0.1106637  -0.6059178   0.4508655  -0.1197571   0.1774220  -0.2424764
  -1.0513575  -0.6306622  -0.3171796   0.0770863  -0.1176129   0.1229611
  -0.1330990  -0.4311120  -0.3447861   0.3341475   0.3551600  -1.2513022
   0.6642165   0.7723057   0.5809474   0.0542149  -0.2588108  -0.0852523
  -1.6577298  -0.2336275  -0.3081414  -0.3008699   0.0798463  -0.6580692
   0.4976124   0.0291438   0.4558272   0.2631339  -0.0728857   0.1666661
  -0.0309684  -0.4282219  -0.2073960   0.1004158   0.2060471  -0.0378181
   0.2904261   0.3441120  -0.5600495   0.0169206  -0.3211825   0.2130975
  -0.0188373   0.4982727  -0.4555928  -0.0533088   0.1604148  -0.3373671
  -0.1917699   0.4569699   0.4112319  -0.9794426  -0.0455500  -0.6851884
   0.0234717  -0.0391880   0.4528095  -0.0697773   0.6108547  -0.9126946
   1.7535108   1.4672407   0.8807572  -0.2177116  -0.1714741  -0.0942719
   0.0914649   0.0867782   0.1664175  -0.1080005   0.1403623  -0.1850203
   0.3467081  -0.3724244  -0.0786211   0.0998391   0.1703210  -0.0307059
  -0.2357360  -0.0396541  -0.1273957   1.3483560  -0.4510494  -0.1230266
  -0.0054598  -0.0795472  -0.2223450  -0.6551921   0.6014475  -1.1696753
  -0.1572957   0.2091580  -0.0557922  -0.1202612  -1.2244388  -0.6832500
   0.3700903   0.0869636  -0.7896943  -0.3002096   0.0841492   0.4159010
   0.0121507   0.2335858  -0.5128396   0.3209482  -0.5946026   0.7385353
  -0.2153952   0.1779641  -0.1100304   0.3910361  -0.0424231  -0.1606429
  -0.6748895   0.4364724   1.8845190  -0.4321279   0.1852596  -0.1427503
  -1.0397771  -0.0579776   0.1503097   0.0015907  -0.4227097   0.1499903
   0.0655404  -0.0235444  -0.0183381   0.1702665   0.0354183  -0.0799454
  -0.5712011   0.9149490   1.7064118  -0.0711507  -0.1842283   0.0474109
   1.1114246  -0.0453612   0.1313235  -0.4207337   0.2311029   0.9393954
   0.0164187  -0.3868847  -0.0346297   0.1033664   0.0405188   0.1712525
   0.1278349  -0.1940975   0.2901236   1.2975130  -0.5243532   0.2401069
   0.0210660  -0.5984375   0.1265811   0.8739612  -0.5555995  -0.0386741
  -0.0169699   0.1315793  -0.1512543  -0.5932932   0.1583579  -0.6732110
  -0.9565271   0.8939057  -0.1115403   0.1017099  -0.1983506   0.0963478
   0.9107150   0.2316591  -0.5097863  -1.3510315   0.1487414  -0.2354071
  -0.2508198  -0.2138858   0.1003431  -0.2525449  -0.1194414   0.0865483
   0.0686041   0.0277758   0.1822459   0.0308751  -0.3579741   0.4605290
  -0.1037937   0.0924345  -0.0814438   0.1761308  -0.1462424  -0.1012649
   0.4474513   1.1430349  -0.1214501  -0.5075612   0.0524620  -0.1299647
   0.5407280   1.0386577  -0.3994649   0.1558173   0.0603854   0.1209853
   0.6779076  -0.5107550  -0.4603554  -0.0432065  -0.6301288  -0.1144226
  -0.0001898   0.4333463  -0.5401293   0.0174041  -0.1619850  -0.2634368
   0.1246337  -0.0291342   0.0926046   0.2700520   0.5144672  -0.1313619
   0.5603291   0.6924806  -0.5005159   0.1869022   0.0405250  -0.0217784
   0.3932208  -1.6892215   0.8228654   0.2640303   0.3797235  -0.0624176
  -0.9642491   1.1869551   0.6723065   1.9559411   1.9239039  -0.0618878
  -0.4892031  -0.6706168   0.3511892  -0.0567193   0.0126100   0.1551185
  -0.0944288  -0.1045332  -0.2754263   0.1953538   0.1732208  -0.3703011
  -0.6636379  -0.9995385   0.1885809   0.2793034   0.3813557   0.0975174
   0.0652613  -0.8522094   0.1009250  -1.7168157  -0.0392644   1.0194578
   0.0309722  -0.1022321  -0.2295374   0.0968490   0.2874011   0.3496934
  -0.0894481   0.0387585  -0.2451893  -0.3949727   0.3579822   0.0038703
  -0.0406458   0.1268939   0.0320748  -0.0731900  -0.6850220  -0.7976587
  -0.0022171   0.0210938  -0.0378435  -0.3515860  -0.4176658   0.3038997
  -0.2817049   0.0854584   0.4103256   0.9720628  -0.6249077  -0.4909695
  -0.6823059   0.8549321   0.2456754   1.0162676  -0.5412869   0.3990097
   0.0469507   0.1784506   0.0989966  -0.2917421  -0.3994035  -0.7457323
  -0.0811418   0.5622626  -0.9475562   0.4812014  -0.2238192   0.0877516
   0.3720325  -0.4531212   0.0478310  -0.0915794   0.7075946  -0.9698438
  -0.1575608   0.1207583   1.5355284   0.1467446  -0.0984020  -0.0583183
  -0.4394807   0.0130986   0.1955222  -0.1506342   0.2565973  -0.1792785
   0.0638414   1.3275482   0.5230989  -0.2151836   0.0970083   0.3242949
  -0.3330708  -0.5566586   0.4723634  -0.1362263   0.2199894   0.4222612
   1.3985934  -0.2929239   0.3497610   0.0102289   1.5685127   0.5015895
   0.0474527   0.1056242  -0.1315253  -0.2484218   0.0515565  -0.0922167
  -0.0214388  -0.0438814   0.3697754   0.0761706  -0.0120271   0.0866104
   0.1378107  -0.6369528   1.2584753   0.3251797   0.0239706   0.2376808
  -0.3867609  -0.5170358   0.4354642  -0.0609806   0.0101864  -0.0302881
   0.0961102  -0.2932497  -0.0367936   0.0004973   0.1884510   0.1677035
  -0.6949281  -0.2436807  -0.9184974   0.3298514  -0.0973612   0.4333100
  -0.1434541   0.3420358   0.0360848  -0.0657744  -0.1414153   0.2761351
  -0.1837200  -0.0684039  -0.4838733   0.3558979   0.4459359  -0.0696057
   0.4113604  -0.2513675  -0.3378529   0.3359538   0.0688409  -0.2168265
   1.2129469  -0.5900645  -0.1360318   0.3094518   0.5535220   0.5789781
  -0.2327606  -0.3033240  -0.1047148   1.1879082  -0.3582066   0.9952917
   0.5175937  -1.0987290  -1.3294076  -0.1392380   0.0447064   0.0154468
  -0.0346146  -0.3128664   0.0220911  -0.2583158  -0.2322165  -0.2414556
  -0.0081319  -0.8009509   3.1404718   1.3041662  -0.8248473   0.3982026
  -0.2856505  -0.2276898  -0.0676410   0.1755250   0.2164566   0.1069821
   0.1733893   0.0092208  -0.2575483  -0.3680479   0.8972007   1.5287690
  -0.0439424  -0.0524653  -0.1297735  -0.7590191   1.5746927  -0.0006390
   0.0878546  -0.1238969   0.1046654  -0.2973332   0.6828927   0.0276937
   0.2407220  -0.0673554   0.1054174  -0.0005026  -2.2823262  -0.5126837
  -0.2182806   1.1273903  -0.0385436  -1.0159221  -1.2498475  -0.6329895
  -0.3108488   0.0884087   0.0044591  -2.1890342   0.1124976  -0.4279984
  -0.2179367   0.1071656   0.0804828  -0.2548974  -0.0230761   0.0933774
  -0.0312666   0.0835444   0.0032972  -0.5114969   0.5445053  -0.4473234
  -0.5480631  -0.5836301  -0.1564617   0.0913089  -0.1094546  -1.1044187
  -0.0494867   0.1751085   0.1495444  -0.3803027   0.3146181   0.4889095
   0.0141808  -0.5979179   0.0646348   0.1412852  -0.2819670   0.0014237
   0.4330094  -0.1363263   0.0372300   0.3358699  -0.1101914  -0.0567286
  -0.1351936   0.2583597  -0.3603630   0.6688921  -0.7151061   1.1105291
  -0.5278809  -0.3897076   0.3799366  -0.1765047   1.2737022  -0.1983009
  -0.0050690  -0.1208795  -0.3517089   0.7206094   0.3398259  -0.0717956
   0.1164469   0.1564791   0.0285587  -0.0397807  -0.0985339   0.3334266
  -1.5842500   0.4439932   0.3803468  -0.1802669   0.8272638   0.6218315
  -0.0530361   0.2397437   0.2682629   1.4567941  -0.1823740   0.4105619
   0.0519051   0.0232063  -0.1931263  -0.1474914   0.2890524  -0.2860085
  -0.1516005   0.0569397  -0.0124257  -0.1341599   0.1556781   0.1189911
   0.3299422   0.2886763  -1.1353540  -0.3455073  -0.5028076   0.2148169
  -0.0438461   0.1200181   0.2251389   0.4347680  -0.4131598   1.4975722
   1.4942103  -2.2110296   0.8025509   0.4625158  -0.0195913  -0.2085972
   1.3693733  -0.1090868  -0.3353763  -0.6836363  -0.4079671  -0.0127461
   0.1759821  -0.2125577   0.1477568  -0.5771543   0.8067352  -0.0145137
  -0.1975134   0.2804393   0.0424315  -0.0231951   0.2024458   0.0478769
   0.1802030   0.0854628   0.1362700   0.2551073   0.0920085  -0.3174598
  -0.0949685   0.0125184   0.7544708  -1.2546421   1.1956537  -0.9413625
  -0.0130107  -0.0854499  -0.3552276   1.1072469   1.5299127   1.8598726
  -1.8044277  -1.2685004  -1.6239159  -0.0929160  -0.0411508  -0.1857234
   1.3844724   0.3817179   0.0036689  -1.2625098   0.8577746   1.0053667
  -0.1465590   0.0500983  -0.0947943  -0.9044600  -0.0491081   2.0894133
   0.4121590   0.1837493   0.0107715  -0.0706406  -0.0292092  -0.0573025
   0.0445701  -0.1721254  -0.2087016  -0.8072182  -0.2009394   0.3048990
  -0.1289644   0.2095735  -0.2994017  -0.4552758  -0.3371497  -0.2742601
  -1.2169273  -0.8179704  -0.6788182   0.1407867  -0.3653595  -0.3911998
  -0.0416851  -0.3084771  -0.0104527   0.2675653  -0.0792501   0.1135788
   0.5215058  -0.8748338   0.4506734   0.1201659  -0.1185738  -0.5625841
  -0.7235988  -0.7033209   1.3843204   0.0749769  -0.0052387   0.1274380
  -1.0539950   0.4245522  -0.4712423  -1.3805627   0.7261801   0.3036345
  -0.2307481  -0.5254331   0.0358455   0.1056474   0.2499252   2.4682198
   0.3512691   0.2731929  -0.0394349  -0.0582665   0.0912943  -0.1032307
  -0.2487857   0.0689069  -0.2034205  -0.7541429   1.3355462  -0.0259125
   0.2568746   0.2612042   0.2038653   0.0381342   1.0610188   0.4580025
  -0.0958979   0.0645060  -0.1098530   0.2503650  -0.4649565   0.2831472
   1.4508009   0.1815896  -1.1166181   0.3221943   0.0838990  -0.0528589
  -0.8537187  -0.9119328  -1.1736220  -1.0075988   1.0948862  -0.8712780
  -0.0879347   0.2646299  -0.0726548  -0.2384305   0.9546878  -0.6070483
   0.0547979   0.9043327   1.1970899  -0.0077556  -0.0544783   0.1981715
   0.7058225  -0.8090743   1.1895390  -0.0954262  -0.0664080  -0.1612391
  -0.1811367   0.3480337  -0.0447798   0.2478427  -0.9736114   0.4016746
  -1.2372796  -0.1147699  -0.2278745   0.1166519   0.2398486  -0.2448665
  -0.9792898  -1.0067207  -0.5903971   1.5245461  -0.8868684   0.8136677
   0.1949982   0.0295344   0.0594825  -0.0658912  -0.1779628  -0.2844605
  -0.0736542   0.1447749   0.3309751  -0.6934742   0.5290091  -1.4004272
  -0.1713358   0.3750584  -0.4065975   1.7580044   0.5267855  -0.0692917
   0.1036590   0.1855443  -0.0109511  -1.3972366   0.7334929  -0.4168781
   0.1142072   0.1253319   0.8958573  -0.1645723  -0.1635598   0.0368713
  -0.2439615   0.1637415  -0.0831990   0.2414259   0.0562227  -0.2374831
  -0.1081514   0.2443477  -0.2108613   0.1886266   0.2323214  -0.1080455
  -0.2376128   0.2886188   0.1357813   0.0871436  -0.4316491  -0.2490511
   1.3096238   1.4724163   0.7227225   0.4331864   0.1310249  -1.5962068
   0.1053597  -0.2405805   0.0218766   0.4885879  -0.9030816   0.0097390
   1.1360217  -0.2261623   0.1969411   0.1009249  -0.0176685   0.3116742
   1.4659142   0.8140809   1.2972904   0.3679847   2.2749774   1.8835248
  -0.5201429  -0.0322166  -0.2134583   0.8839071  -0.8143628   0.5541698
   0.3038376   0.2210197   0.2746143   0.1579596  -0.2521576  -0.0319587
   0.1121192   0.3441103  -0.1836093  -0.2807861   0.1222014  -0.6265482
  -0.1117070   0.0109167  -0.1080097  -0.6086622   0.7450907  -0.9089519
  -0.1750939   0.0578105   0.0667461   0.7615840   0.4346147   0.6539247
   0.3695472   0.2395139   1.0181654  -0.0751096   0.0048809  -0.0600069
   0.1975320  -0.0506733  -0.0913249   0.5040232  -0.4170098   0.2544591
   0.3753738   0.0881653  -0.1871114  -0.0683848   0.0649108  -0.0403342
  -0.1531923   0.0756042  -0.5440654  -0.9893711  -0.6852889  -0.1071165
   0.0686300   0.3156338  -0.2071728  -0.3622871   0.0719857  -0.6414486
   0.0755770   0.4717873  -0.2450235  -0.5070104   2.2032669  -0.9339521
   0.1245641   0.0653386   0.3377941  -0.1517941  -0.0342960  -0.0601053
  -0.0262918  -0.1603064  -0.1240856   0.2832754   0.1468505  -0.3501516
   0.3731624   1.4665465  -0.0371359   1.5975166  -1.5964395  -0.3620273
   0.1314900  -0.3874441   0.0526857   0.0294317   0.6697603  -0.8893117
  -1.4002431  -0.3929858  -0.3113759  -0.0153857   0.0019352   0.2783902
  -0.2965139   0.3871148  -1.2722684  -0.7404415  -0.6177155  -1.5790017
   0.0421772  -0.1656472   0.2981426  -0.5069221   0.4598579  -0.4327375
   0.1903651   0.0787030   0.1093436  -0.1793627  -0.0195413   0.1625295
   0.0115258  -0.1843196   0.0923222  -0.2818363   1.0833872  -0.0005650
   0.0624273  -0.0403937   0.0109936   0.3168680  -1.3638750   0.2505886
   0.2011682   0.0645479  -0.1444722   0.8634430  -1.0597315   0.4713884
   0.2797420  -0.7423030   0.4494674  -0.0790630  -0.2332602   0.1528438
  -0.2079819   0.7103565  -1.2836217  -0.1312507  -0.5285852  -0.5574212
   0.0709761   0.7352034   0.2208163  -0.1297522   0.0112299  -0.0817957
  -0.1661027  -0.0893008   0.2197235  -1.0495221   0.6814313   1.1858781
   0.1231044  -0.9437127  -0.1341419   0.2329785   0.0163992   0.1778200
   0.0685934  -0.0053439   0.0554477  -0.1463066  -0.3031587   0.2220088
  -0.2124748  -0.6643741  -0.9332036  -0.0303725  -0.0858200  -0.0419495
   0.8315107  -0.1524523  -0.1362986   0.2671934  -0.2356100  -0.1284922
  -1.1764413   0.3890429  -0.9937743  -0.7689658  -1.6359941  -0.9130524
   0.1529757  -0.3036872  -0.1718580  -0.0795825   0.7908414   0.2394348
  -0.1651849  -0.1254426   0.1993977  -0.0797067  -0.0844061   0.1847234
   0.0779904  -0.3471988   0.1168719   0.7701697  -0.3162605  -0.3776583
   0.2938791   0.0642155  -0.1034402  -0.1301343   0.3375790   0.5300962
  -0.3109780   0.1018928   0.1975525   0.4016256   0.5971718  -0.4160908
  -0.8445725   0.0111639  -0.7019001  -0.1214978  -0.1206731   0.2276337
   0.2124604  -0.1361318   0.3861878   0.2832061  -0.4114176   0.3195933
  -0.9113455  -0.2492453  -0.1680694  -0.1602254   0.9934179  -1.3010142
  -0.0017762   0.4947030  -0.0056814  -0.1078207  -0.1949604  -0.1409504
   0.1445226  -0.2292743  -0.0411480   0.0780888   1.4191716   0.4544028
   0.0367930  -0.4698565  -0.0177344   1.0671170  -0.3469114  -1.2322959
  -0.0571722   0.0516430  -0.4953898   0.3729459   0.1222070   0.3908735
  -0.1642038   0.0278616   0.1299584  -0.5840405  -0.3611025  -0.3319571
   0.0146522   0.1696520  -0.1420408   0.1319498   0.0873958  -0.1708478
  -0.0546484  -0.0039475  -0.1492723   0.0414611   0.1153540  -0.1958708
   0.4135856   0.0975369  -0.5191169  -0.0779890  -0.0715018  -0.0199712
  -0.0380260  -0.1626260  -0.0835232   1.2854094   1.0432617  -0.7055422
  -0.0237087   0.5642822  -0.1352539  -0.2386853   0.1692776  -0.0306569
  -0.0007016  -0.0246800  -0.6587997   0.5559928   0.2220709  -0.3531470
  -0.1521950  -0.2354003  -0.1044166   1.7279563  -0.7786974   0.1998320
  -0.1350340   0.2635424   0.1124655   0.0529793   0.0054815  -0.1425107
   0.1812916  -0.2172412  -0.0663737  -0.5822976  -0.3174222   0.8887773
  -0.2302226  -0.0358070   0.1072285   0.1772773  -0.9433424   0.0209242
  -0.0044580   0.0012302   0.2397266   1.2132436   0.4280854   0.3955564
  -0.0071305   0.0355507   0.3963667  -0.5219498  -0.0578220   0.7181977
   0.8773079  -0.9872526   0.1720093   0.0135794  -1.4315193  -0.1937112
  -0.0369842   0.2477204  -0.0155679  -0.4087317  -0.8555972   0.8079346
  -0.6302635   0.3663291  -0.2210458   0.2109689  -0.5334255   0.2127085
  -0.4265313  -0.0354189  -0.1479432   0.8433262  -0.1204195  -0.1407051
  -0.5734635   0.9729723   0.1019326   0.2227723   0.2882513  -0.0245391
   0.0421935  -0.0001642  -0.2139065  -0.1790795   0.0072727  -0.2349819
   0.2428405  -0.5283855  -0.7785031  -0.2742783  -0.3018396  -0.1831134
  -0.1114159  -0.0215058  -0.7150637  -0.1440902  -0.3276041  -0.0177988
  -0.5467205   0.0674251   0.1081476   0.1088470   0.0526394  -0.0340772
  -0.4577147   0.1499760  -0.3816599  -1.2145190   0.3249631  -1.2354182
   0.6910059   0.2255264   0.5286683  -0.0810113   0.3112328  -0.4284693
   0.0512303   0.3549462  -1.0859394   0.1368210   0.7230927   0.9766623
   0.4982462   0.0368556   0.3886228   0.1857940   0.0593509   0.4626858
  -0.2438908   0.9150291   0.3890342   0.5642263   0.6273503  -0.4824652
  -0.1954873  -0.1113186   0.0569317   0.1219628  -0.1820569  -0.0414792
  -0.4053929   0.1033431  -0.1210442  -0.1110960   0.2785758  -0.8479573
  -0.1729119  -0.0179119   0.0061593  -0.6267819  -0.1475048   0.2213413
  -0.1130979   0.4048879   0.2798689  -0.9685633   1.3376795   0.3164459
  -1.3714133   0.2599522  -0.1455883  -0.0235750  -0.4594406  -0.2456796
  -0.0309585  -0.0684253   0.0922394   0.1018046   0.1934619   0.1949476
  -0.1131263   0.4858684  -0.0365984   0.3739530  -0.1910702   0.0294805
   0.0352121  -0.2038453  -0.1057949  -0.8304670   0.4816920  -0.4788359
   0.0789852   0.2390406   0.2760207  -0.5452922   0.0893854   0.2860932
   0.4637206  -0.1474509   0.1032401  -0.0640294  -1.3348773   0.8026126
   0.0963507   0.9038604   1.4432397  -0.1902268   0.0871723  -0.3022437
   0.6684730  -0.5752027   0.7106984  -0.6411220  -0.3770799  -0.1345128
  -0.2666862  -0.0439184  -0.0982598   0.0280035   0.1122950   0.1181350
  -0.0955350  -0.1010355   0.0863878  -0.2830133   0.2498069  -0.0198059
   0.3066222   0.0733533  -0.1642022  -0.1802228  -0.0417112  -0.3043197
  -0.3588279  -0.2708823  -1.0727691   0.0573039   0.0938539  -0.2176425
  -0.6368783   0.1516220  -0.0878438  -0.0389577   0.0401385  -0.2231453
   1.0082530  -0.4054899   1.0707810   0.4647405  -0.6899005  -0.0032828
  -0.1461922   0.2755200   0.3795674   0.3914545  -0.4705368  -0.6754274
  -0.5758167  -0.2359780  -1.3175311  -0.0462900  -0.3820259  -0.3920188
  -0.2656815   0.0440527   0.2894415   0.0373127  -0.1250292  -0.0335563
   0.2879834   0.2972991  -0.2709783   0.0619681  -0.0235327  -0.1502046
  -0.0391310   0.1723974  -0.1414629   1.2905448   0.2302229  -1.9023716
  -0.1988229  -0.1869417   0.0839996   0.8960937   0.0307223  -0.6558890
   0.3630458  -0.1012247   0.0885323  -0.3574268  -0.3945882   0.1528536
   0.4197303   0.1889737  -0.0637878  -0.3887660   0.2504198  -0.1006581
  -0.6555885  -0.6832183   0.8153089  -0.9134058  -0.0632330   0.6111932
  -0.1334130  -0.0428625   0.2149399   0.2385879   0.0556794  -0.4472813
  -0.0074743  -0.5408625   1.6208498  -0.0980811  -0.2056893   0.0989248
  -0.5563518  -0.7841960  -0.4989700  -0.2612991  -0.0955320  -0.1375250
   0.4857324  -0.1150944   0.0632882  -2.3247732  -1.0800200  -0.7860251
   0.1872911  -0.0466025  -0.1669041   0.0943845   0.1605998  -0.1574998
  -0.7446114  -1.3729630   0.3154878  -1.0181483  -0.5021171   0.4359885
  -0.1814878   0.0185504   0.2759994   0.1784735   0.1276987  -0.0525862
   0.1400655   0.0408244  -0.0950099   0.4984178   0.7388396   0.2562417
   0.0189727  -0.1294647   0.0769924  -0.5581899  -0.4277960   0.9634169
  -0.1373638   0.2534003   0.4185394   0.6555709  -0.2253154  -0.1914083
   0.2473995  -0.1011015   0.1914728  -0.0872291  -0.2038949   0.0647309
  -0.5425091  -0.6029068   0.9465612  -0.5737387  -0.4872525  -0.0512713
   0.4266045  -0.0450333   0.1346148   0.1424303   0.2488785  -0.0319521
   0.2224822  -0.1378096   0.0827814  -0.0923055  -0.3477352  -0.3402805
  -0.2067660  -0.2582751  -0.0227018  -0.2237553   0.0281942   0.2444565
   0.4826888  -0.0216995  -0.5139139   0.2136797  -0.1294500  -0.3946731
  -0.1963546  -0.3847609   1.2743685  -0.0358500  -0.5524578   0.1870071
  -1.6282803   0.7176873  -0.4717373  -0.1291937  -0.2127017   0.0391539
  -0.6681023  -0.2307759  -1.2072829  -0.1220937   0.6806359  -1.1558787
  -0.5291636  -0.6099932   1.0773957  -0.1380575   0.1497981  -0.1343391
  -1.0286943   0.0305353  -1.2511302   0.5553730   1.4617478  -0.2787238
  -0.2055832   0.3020476  -0.0635482  -0.5717232  -0.0356695   1.5343913
  -0.0735555   0.0563011  -0.1449800   1.9587256  -0.7397984   0.4504902
   0.2455672   0.3312582  -0.0044464   0.0062660  -0.0118285   0.2833130
   0.0061516   0.0432652   0.1081112  -0.6744658   0.1040253  -0.2583969
   0.1014759  -0.4958909   0.7662605  -0.0314506   0.3851726   0.0883323
  -0.0523408   0.0608437   0.0638909  -1.5676949  -0.5433053   1.0850225
  -0.1090973  -0.0434255  -0.9847684   0.1045768   0.0834488  -0.1012514
  -0.5922895   0.4005430   0.1361385  -0.0214341  -1.2335924   0.0608817
  -0.4507044  -0.1286194  -0.1179478  -0.8496210   0.1402149   1.7453643
   0.1301539  -0.1191094   0.0223621  -0.2948973  -0.0208314  -0.0239942
  -0.1364725  -0.2624619  -0.4948937  -0.0194102   2.6120030   0.2317375
  -0.0100535   0.0367944   0.0123003  -0.1601763   0.7809301  -1.2669114
  -0.0716756   0.1380892  -0.3557760  -1.5297089   0.0858163   0.7346115
   0.0395337  -0.4898158  -0.2724513  -0.0749245   0.0031967  -0.3535226
  -0.2398234   0.2604251   0.0082093   0.4723608   0.6673773   1.0256969
  -0.0974119   0.1877350   0.1700657   0.1980678   0.1286975   0.4035730
   0.1755250  -0.0499436  -0.1962714   0.3032559   0.1207715  -0.1635766
   0.1734587  -0.0654783  -0.0783279   0.2501859   0.2266255   0.1733167
   1.5888465   0.6687490   0.0747661   0.1726604  -0.5545486   0.2696773
  -0.6169288  -0.3367230   1.7266514   0.5027937   0.2558273   0.0002403
  -0.0468227   0.7228173   0.2286813  -0.7560916  -0.0599510   0.3594922
   0.2570286  -0.1141387  -0.1960593  -0.0479098   0.7183689  -0.3363825
   0.3035906   0.9095163  -0.0306790  -0.3526075   0.2377141   0.3319066
  -0.2394540  -0.1371324   0.4222111  -1.4280526   0.1715836   0.9483227
   0.0868948  -0.0134790  -0.3290392   1.7227395   1.2932477   0.3756581
  -0.0584113  -0.2599630   0.4538362   0.4037727  -0.0823154  -0.0424606
  -0.4947058   0.8606676  -0.3210442   0.2573027   1.0466445   0.6632728
  -0.0253872   0.1267534   0.0608881  -1.0772159   0.8573243   0.7799651
  -1.1534838   0.4667517   0.8183032   0.2997331   0.4207166  -0.3204958
   0.2019998   0.0228960   0.1860007  -0.0144255  -0.2155285  -0.3654455
  -1.3399779  -0.5231174  -0.8054449  -0.0435574   0.3756920  -0.2611150
   0.8193741   1.1543705  -0.6829826   0.1538222  -0.1828065  -0.2445692
   0.4558438   1.1601011   1.0194411   0.4197096  -0.0965362  -0.0614353
   0.0198443  -0.0451255  -0.0898315   1.0595322   1.1853785   0.5238986
  -0.1102354  -0.2136280  -0.0061731  -0.1290297  -0.2287683  -0.2107450
  -0.1243021   0.3582019  -0.1037682   0.3699968  -0.1896071  -0.3389726
  -0.2667006   0.3422858  -0.1470425  -0.1982878  -0.0771388   0.9368037
  -0.0965809  -0.4762002  -0.3546547   0.9916072  -0.3472564   0.4591559
  -0.4775656   1.5735904   0.1847866  -0.2104150   0.1495513  -0.3842056
   0.3581800   0.0073780   0.0267239   0.4568934  -0.7162346  -0.5562105
   0.0783365   0.4421267  -0.0282328  -0.8182505   0.9117074   1.1357960
  -0.3811629   0.0735635   0.0543322  -0.1607808  -0.2292845  -0.0154664
   0.8746080  -0.5984617   0.0950582   0.1753625   0.0668919  -0.0462627
  -1.8314840   0.8644249  -0.7554824   0.2385020  -0.0969814   0.2620740
  -1.2345122  -1.0010130   0.3228244  -0.4630755  -0.0199219  -0.0227530
  -0.6513739   1.9364110  -1.6398056   0.5992099   0.2930370  -0.0554030
  -0.1143323   0.2795103  -0.1464525   0.0761617   0.0516858  -0.1084604
   0.0166353  -0.1786880  -0.1300688   0.2701895  -0.0227017   0.4525878
   0.0081020   0.4253650  -0.0062335  -0.1923602   1.4420007  -0.6948541
  -0.2885598  -0.2264875   0.0676628  -1.3002102  -0.0430497   1.1202006
  -0.1069830  -0.5350147   0.7914736  -0.0493475  -0.4716122  -0.0118767
  -0.2811254   0.1237033  -0.0048557   0.0333762   0.0377805  -0.0415263
  -0.1802856   1.5518951   0.2488931   0.9927703  -0.6069411   0.5792595
   0.0501631  -0.5003897   0.1739418   0.1652486   0.2944610   0.0368443
  -0.0182127  -0.2581709  -0.0413273   0.7811941  -0.2277710  -0.7050483
   0.1780960   0.2501246   0.0894974   0.7149076   0.3258412   0.8708758
   0.4315752  -0.4580408  -0.2236264   0.3708713   1.1724648   0.0036933
  -0.0675532   0.8278677   1.2237015  -0.2725276  -0.0372064   0.2274718
  -0.4837406  -0.3492451  -2.4283130   0.7318044  -0.0722584   0.0808850
  -0.1776601   0.3225158  -0.1087927   0.1521846  -0.1916888   0.1519862
  -0.5734627  -0.8296881   0.7603622  -0.0013827   0.0224833  -0.0688956
   0.0142629  -0.7349555   0.3681647  -0.0949763   0.7416657  -0.6246399
  -0.2085149  -0.1058690  -0.0288273   0.0956449   0.0423818  -0.1284146
   0.1041672  -0.0220875  -0.0612795  -0.0339757   0.0299802  -0.4378376
  -0.0011932  -0.0199433  -0.1233506   0.5170677  -0.5378944   0.7216284
  -0.3472042  -0.0279154   0.3667055  -0.1038985  -0.6354549   0.9897404
  -0.4632569  -0.9806049  -0.7260061   0.3056997  -0.0587326   0.0477731
  -0.1540926  -0.0031050  -0.2245576  -0.0075361   0.2985108   0.0202601
   0.6482528  -0.3311515   1.2411104  -0.0775575   0.0269960   0.0108446
   0.3397956  -0.3407326   0.3353328   0.1659862   0.5105435   0.0769862
  -0.2508096   0.0756361   0.4432880  -0.2629854  -0.0634086   0.1776822
   0.0863482   0.1856028   0.1314238   0.1106107  -0.1899784   0.1028787
  -0.4571025   1.1680640   0.9052806  -0.1913063   0.4425601  -0.1393411
   0.1752715   0.6427675   0.5636797   0.0866085  -0.4321656   0.0159048
   0.9028102  -0.1709899   0.8878779   0.4026833  -0.2432008   0.6349421
   0.1163084   0.3186316  -0.1714749  -0.4481313   1.2186253   0.8122314
   0.0505989  -0.1214652   0.7902309   0.1428645   0.6257650   0.0473893
  -0.4058989   0.0068851   0.1888022  -0.2513046   0.2468313   0.0393947
  -0.0435422  -0.2212795  -0.0244272  -0.0387259  -0.3657112   0.0360794
   0.1970548   0.2313389   0.1108610  -0.7139177  -0.4601713   0.5051017
   0.1006979  -0.4927649   0.0584020   0.1517465   0.5939876  -0.0069148
   0.0664877   0.0985140  -0.0712473  -0.4298478  -0.5734418   0.3626775
   0.1122963  -0.2026119   2.8808572   0.0693082   0.4396712   0.3820316
   0.2328654   0.2411063  -0.1792479  -0.2639920  -0.3166326   0.0951060
  -0.1755727   0.0670402   0.1644512  -0.5771122  -0.5964266   0.3102402
   0.2168347  -0.3622328   0.1062717   0.1182048  -0.1167722  -0.2450193
   0.4202258  -0.2436145   0.1939741  -0.2574108   0.0255950  -0.0058666
   0.8426039   0.0256169  -0.3848735  -0.2225181  -0.3622658   0.1814378
  -0.2451518  -0.9491069   0.6252666   0.4322126   0.2978962   0.0358634
   2.1224080  -0.0972370  -0.1559211   0.1123095  -0.1361881  -0.0302452
  -0.1855828   0.0868854   0.2450710   0.1164087  -0.2691600   0.2723431
   0.2539534   0.0941130   0.0162750   0.0222927   0.4930974   1.0906198
  -0.1574191  -0.4365411  -0.0864224  -0.7442567  -1.3972434  -0.4005997
  -0.2382393  -0.0352204  -0.0440013  -1.4974945   0.0794133  -1.3701673
   0.2781201  -0.0523940   0.0646843   0.6060034  -0.6854048   0.4032717
   0.3988608   0.2996743  -0.0597901  -0.1957983   0.0198232   0.1510110
  -0.0561494   0.2508798   0.1122831  -0.7298068   0.5167078  -1.0120255
  -0.4439093  -0.4570757   0.2720557  -0.4388579   0.1577944   0.6689915
  -0.0746965   0.0862843   0.0069264  -0.0798449  -0.0562405  -0.0600756
  -0.2310066  -0.1325647   0.0527217   1.3179479   0.1009353  -0.2966224
   0.1762600   0.2333851   0.1390250   0.6638581  -1.0102997  -1.6421965
   0.0295579   0.1255217  -0.1633769   1.6755380   0.0576040   1.2285749
   0.2164894   0.1715663   0.1019348  -1.1417120  -0.8734198  -1.2002261
  -0.2446822  -0.6392610  -0.2604319   0.3191993  -0.6733684  -0.5377272
  -0.2334165  -0.0766912   0.1902962  -0.5928812  -0.0611939   0.3115565
   0.3197233   0.1572951   0.3788250  -0.0396376  -0.1649594  -0.1099840
  -0.1770073  -0.1674307  -0.2649527   0.2715230   1.5854772   1.4212770
   0.3761760  -0.3002268  -0.0088432  -0.2482562   0.1550193  -0.2228662
  -0.0254439   0.0995790  -0.1133367  -0.5271352  -0.0096966  -0.2323312
   0.3569806  -1.3407580   1.0891472  -0.3736966  -0.2197898  -0.2951713
   0.0920505   0.0986485   0.1604936   0.2026138   0.1418737   0.0867971
  -0.0148820   0.0009786  -0.1931891   0.3388886   0.0236406  -0.0789460
   0.0459926   0.1866295  -0.4348824  -0.4545063   0.1978035  -1.7883478
  -0.1517417  -0.3572397   0.0904406   0.4249790  -0.2876397   1.1596371
   0.1004650   0.3556902  -0.1616814   0.3390859  -0.6083202   0.5340956
   0.9992688  -1.2696770   0.0115054   0.0632268  -0.1418710  -0.0918275
   0.1383740  -0.0588754  -0.3865589   1.6690184  -0.3343087  -1.1918737
   0.2133493   0.3314182   0.0185760  -1.0861358  -0.2420159  -1.2521861
  -0.2109245  -0.1461942   0.1104382  -0.7491274   0.6480898   0.1176067
  -0.1328921   0.2902920  -0.1487821   0.3877912   0.8591356  -0.2969337
   0.0022592  -0.0125728  -0.2850111  -0.8200778   0.3008285   0.1583444
  -0.0161622  -0.2360378   0.2276918  -0.3447555  -0.1691154  -0.2492912
  -0.0207575   0.1103113   0.1420478  -0.7861113  -1.3303080   0.8629228
  -0.0355026   0.2790014   0.2725183  -0.3651837  -0.1568257  -0.8037058
  -0.0037536   0.0543253  -0.3187043  -0.7614824   0.0576195  -1.1593460
  -1.2539423  -0.9006145  -0.2355540  -0.0202855   0.0023122  -0.2324279
  -0.1309098   0.0868970  -0.7385266   0.0604088   0.2275667   0.3791012
  -0.3346513   0.0802321   0.3381503   0.0872839  -0.6810968  -0.2972925
  -0.0679024  -1.3906767  -0.0745739   0.0088570   0.0886773   0.1178787
   0.0084639   0.0415363   0.7271694  -0.5149489  -0.4812447  -0.0956551
  -0.2353961   0.5155977   0.0456396  -0.6487701  -0.2576525  -1.2493271
   0.8141431  -0.4954190   0.0208034   0.8271910   2.1805694  -1.0613715
   0.5433919  -0.1827895  -0.0694049  -0.2191312   0.1843774   0.1418265
  -0.1990605  -0.2100218  -0.0810765  -0.3339608   0.6205385  -0.9789315
   0.1409428   0.2311559   0.0501134   1.0042269  -0.4823311  -2.1579452
   0.1795553  -0.3202970   1.2073469  -0.0889991   0.1636631   0.1207857
  -0.1572512  -0.1095948   0.1589621  -0.1291941  -0.2455274  -0.1142908
   0.4451941   1.0416437  -0.7382713   0.4724522  -0.0466143  -0.0884799
  -0.6734221  -0.3474500   0.7923056   0.0528187   0.2628893  -0.0971501
  -0.2128756  -0.7975367   0.5587867  -0.0859773   0.6651546  -0.1765859
  -0.4326347  -0.1924639   0.1461296  -0.5834626   1.4606474   1.1111900
  -0.6589658  -0.2158541   0.2466025  -0.2734050   0.2859414  -0.0448926
   1.2330365   1.1277066   0.6197129  -1.3245179  -0.6564488  -1.1045724
   0.0381824  -0.0954130   0.1627809   0.3104733  -0.3681173  -0.2155356
  -0.4995768  -0.0500181   1.7170166  -0.0901800   0.0533555   0.1418191
   0.2800346   0.1577397  -0.0168564  -0.8854980   0.6500730   0.0304479
   0.6268130  -0.4013928   0.3524837   0.1923930   0.4031136  -0.2561804
  -0.0369456  -0.0489344  -0.1058951  -0.1660396   0.0831153  -0.2674285
   1.0975525  -0.7061676   0.4645497  -0.0482501  -0.2934418   0.3460480
  -0.2427386   0.5283413  -1.1993262   0.2015470   0.0153410  -0.2076670
  -1.8315905  -0.4073797  -0.3899137   0.0300364   0.0213813  -0.1379132
   0.1307395   0.5590624   1.0586603   0.0142657   0.9638705  -0.6181645
   1.3505443  -0.4803520   1.9838125  -0.0689413   0.2648057   0.0533425
  -1.2500959  -0.4864044  -0.1206205  -0.0961029  -0.0073485  -0.0350756
  -0.1997703  -0.1069527   0.2597871  -0.3362697   0.2009879   0.2370696
  -0.1027087  -1.3428472  -0.2167029  -0.4951916  -0.0179575  -0.3878401
   1.3947512   0.3435927   0.2550211  -0.1739917  -0.1781779   0.0303149
  -0.6711880  -0.3761957  -0.5671950   0.2950540   0.0535809   0.3713462
   0.4026738   1.0877004  -0.2175640   0.5357846  -1.2219994  -1.0370279
   1.6264331   1.4073844   1.3374980   0.0966383   0.3521794  -0.1397113
  -1.3423150  -0.0370800  -0.3076928  -0.4815553   0.0955548   0.8002831
   0.5283805   0.1937158  -0.7094737   0.0554504   0.0648732  -0.2783771
  -0.1596837   0.0079321  -0.4205381  -0.1062024  -0.0477899  -0.0410441
   0.1965684  -1.2830514   0.2619608  -0.3434996  -0.2481299   0.0171384
   1.2609065  -0.0493940   0.9182620  -0.4729089   0.2326467  -0.2186791
   0.7420355   0.1241818   0.4552286  -0.2692625  -0.8767730   0.2426213
   0.1986266   0.1857311   0.4063588   0.1671755  -0.1402173   0.2710759
   0.2527076  -0.1415928  -1.1149538   0.5633765   0.2589584  -0.0588178
  -1.0069807  -0.2245653  -0.2719475   0.4460700   0.0109294  -0.0514287
   0.1139107   0.2047062  -0.1652197  -0.1532282  -0.1723476  -1.5975031
   0.1159363  -0.2147180  -0.1017527   0.6626489   0.7582485  -0.5060826
  -0.0667111   0.0021973  -0.0523664  -0.4133875   1.1594425   0.2221802
   0.2953168   0.0194611  -0.0033249  -0.2095504  -0.1075271   1.2145730
   0.0887522   0.2516532   0.3305201  -0.0963338   0.5604023  -0.0349412
   0.4660961   0.1095164  -0.0238746   0.0544119  -0.0948401  -0.0347618
   0.1175127  -0.3345062  -0.4165713   0.0713686  -0.2355564  -0.2302827
  -0.0994393   0.3071783   0.2472813  -0.2691833  -0.0563998  -0.3933229
  -0.4754166   0.6428624   1.2363070  -1.2009932   1.1382348  -0.8556768
  -0.3558080   0.1806916   0.0059639   0.3946560  -0.0481243  -0.0313957
  -1.0711162  -0.1324016   0.2321622  -0.0444278   0.2460920   0.4840885
   0.2687771   1.7745576  -0.0371935   0.1384781   0.1175775   0.2658375
  -0.8088504  -0.1747518  -0.7972049  -0.0898136  -0.3123166  -0.0126239
   0.4471577   0.6849734   1.7799154   0.2285568  -0.2170274  -0.2802957
   0.6610462   0.6799361   0.7697636   0.2966426  -0.2038063   0.0476805
   0.2238511   0.2285569   0.1957142  -0.1688413   0.0283405  -0.4074006
   0.1739592  -0.0430242  -0.0112840   0.0153330  -0.2852690  -0.2754092
  -0.2796594  -0.0500472  -1.4610025   0.1190552   0.2596741   0.3900526
  -0.7201538   0.0267001  -1.0936811  -0.0594716   0.0028043   0.5410229
   0.8479411  -0.1227936  -0.5995404  -0.2197398   0.0868737   0.1256810
  -0.3932645   0.0059522  -0.6597986   0.2262365   0.0819672   0.1239607
   0.1547867   0.0673562   1.6778446   0.1474295  -0.6505854  -0.3726843
  -1.5816331   0.8218806  -0.8290630   0.4926361  -0.0193339   0.1377171
  -0.0378379   0.3761082  -0.1072509  -0.1130517   0.0313080  -0.2075960
  -0.0498512   0.0908839   0.0528561   0.9422679  -0.9980409   0.4142242
   0.0023069  -0.2305697   0.2129786  -0.2805695   0.0476143  -0.0276887
  -0.5115517   0.8978290   0.5705768   0.2453883  -0.7155226  -0.7848306
   0.0274966   0.4458313  -0.0558957  -1.0590481   0.2095487  -0.5623103
   2.0757673  -1.3066548  -0.7089869  -0.3416977   0.1550841  -0.3502259
  -0.5341134  -0.1312402   0.1079726  -0.1166013   0.0044602   0.2841711
  -0.1604652   0.0728612  -0.0192732  -0.1635743   0.1542246   0.0095992
   0.4376544  -1.5275487   0.8151956  -0.1105450   0.2531850  -0.0330630
  -0.8463046   0.3701423   0.2534746   0.0284566  -0.0500995  -0.1139307
   0.7764134   0.7064139   0.6836840   0.3809683  -0.5819192  -0.9174026
  -0.4744300  -0.0419149  -0.0813375  -1.4033868  -0.8834793   0.0238602
   0.0838465  -0.0232928   0.1989360  -0.2623306  -0.0589491  -0.1634499
   0.0656319   0.4156209   0.0271340   0.6107565   0.0891696   0.6068612
  -0.2178868   0.1134537   0.3269258   1.1932824   0.3064693  -0.3371722
  -0.2789773   0.0787120   0.0160603   0.9203746  -2.4812398   0.1839210
  -0.0405517  -0.1460394   0.4655842  -1.0565332  -0.3566368   0.0433080
  -0.2646113   1.6708448   0.8828850  -1.4232976  -1.5592228  -0.0578943
   0.2003473  -0.2523117   0.0427458  -1.2538266   1.3545852  -1.3591016
  -0.0878456   0.3675880   0.0548035  -0.0021642   0.0588009   0.0550407
   0.5420872   0.4483071  -0.8671660   0.6220092   0.4282130  -0.7311638
  -0.5410356  -0.2119645   0.2929231  -0.0663125  -0.5084578   0.0756753
   0.0055233   0.2271995   0.1351100  -0.1085758  -0.2119661  -0.2115443
  -0.7273479  -0.9007836   0.0537709  -0.1858190   0.0172792   0.1281696
   0.0003987  -1.3612964   0.4636785  -0.1395347  -0.1071619  -0.0569597
   0.7973603  -0.8005582  -2.1600108   0.9211517  -0.2725064  -0.1279012
  -0.2173098   0.3365112  -0.0576362   1.0729961   0.7469149  -0.1371585
   0.0586933  -0.7791258   0.7788112  -0.1117999  -0.3489466  -0.0679070
  -1.0281379  -1.1675926   0.8750014   0.3144588  -0.5269607   1.5279370
  -0.4026730  -0.2769463  -0.3638878  -0.7423781   0.4425055   0.6905344
   0.4342783   0.3805475   1.1896157   0.3120591  -0.3036565  -0.0419699
   0.7897457   0.2381799   0.6102206  -0.1517321  -0.2701768  -0.5106161
   0.2743118   0.2881145  -0.0552298  -0.2086039  -0.1266454   0.0445350
  -0.4025468   0.2371679  -0.0192283  -0.2249219   0.2785831  -0.1772767
  -0.2271499   1.4492546  -0.4468197   0.0091683   0.4290975  -0.4079172
   1.6950446  -1.1199764  -0.3279608  -0.3538233   0.0349492   0.1534681
   1.0926265  -0.3063053  -0.4112574   0.5104474  -0.2408068   0.0146100
   0.1742262  -0.2422077  -1.5395352   0.0123167   0.3702305   0.0094471
  -0.1737716   0.0809010   0.0415353  -0.1546622  -0.2910118   0.0843406
   0.9844420  -0.2940541  -0.5156807  -0.1842942  -0.1795604  -0.2013346
  -0.2997849   0.7735992   1.1269769   0.2274877   0.5780581  -0.5556230
   0.3296259  -0.1823938   0.0069620  -0.2763290   0.0528457   0.0851821
  -0.0164715   0.2413762  -0.0714623   0.1014980  -0.5499990   1.4186312
  -0.0824505  -0.0622110   0.1564445   0.2195993  -0.3253915  -0.1069273
  -0.0479635   0.0612942   0.2941709   0.3627045  -0.6757299   0.9549709
  -0.0100104  -0.4416783   0.0094937   0.5204810  -0.1193016   0.3486345
   0.0618789  -0.2744254   0.0446680   0.1006873  -0.0965158   0.0128488
  -0.3371056  -0.6350277  -0.7390879   0.4771103  -0.0738913   0.0879028
   0.4169451   0.0840147  -0.4908000  -0.3802409   0.2302874   0.2227049
  -0.3001448  -0.1056715  -0.1027354   0.8731537  -1.0051175   0.4526940
  -0.1248467  -0.0465032  -0.2188193   0.1168608  -0.0624839  -0.7668843
   0.0569935  -0.0733399   0.0681886  -0.1142852   0.1374269  -0.9260750
  -1.8352989   0.0608509   0.7991262   0.2650437   0.2257243   0.1382531
  -0.0527000  -0.1794233   0.1779494   0.1247862   0.3327959   0.1565947
  -0.2430625   0.0460603   0.0374809   0.3598181  -0.2548748  -0.2881808
   0.0333734   0.0978483   0.1720620   0.7254914  -0.2625802  -1.4132571
  -0.1099517  -0.0757466  -0.0005786   1.1702158  -0.1120265   0.1947608
   0.1535513   0.2665374   0.1018074   1.1244951   0.8379374  -0.5858901
  -0.0477344   0.0127965   0.0329236  -0.3918862  -0.6612870   0.4510035
   1.0043094  -0.4360958   0.1196735   0.1079392   0.1759856   0.2188577
   0.2861155  -0.3540120   0.0021239   1.0753192  -0.3775005  -0.1284066
  -1.7284611   0.8629322  -0.1266155   0.4008324  -0.2758906  -0.1026636
   0.4008000   0.8470092   0.2663239   0.0703316   0.3563705   0.1050047
   1.1751580   1.5966730  -1.0186123  -0.1440197   0.1449585   0.2589793
  -0.1288414   0.2318357  -0.1323961   0.3576441   0.2522454  -0.1739220
  -0.1353571   0.0083004  -1.1798882  -0.6437964   0.3102117  -0.1376594
   1.2910269  -1.0450171   1.4373395  -0.4775974  -0.4093769   0.2777281
  -0.2961286  -0.0144041   0.3202290  -0.2216315  -1.3869849   0.0930650
   1.0446019   0.0500997   1.2271963  -0.0439968  -0.1015939   0.5878569
  -0.1894248  -0.1466271  -0.1359357  -0.0250283  -0.2599776   0.0666351
   0.7613324  -0.1788603   0.0039201  -0.2350910  -0.1477438   0.2212008
  -0.8185166   1.2949844   0.5760305   0.1037333  -0.1068513  -0.0239912
   0.7711607  -0.4212810  -0.5372694  -0.3911969  -0.0760029   0.5325150
   0.6823703   0.1951392   0.7718950  -0.3948615  -0.0842873   0.5221735
  -0.1020487  -0.0801988  -0.2484685  -0.0515416   0.1010169   0.2880047
  -0.5364833   1.1341870   1.2884260   0.2245225  -0.2747797   0.0467101
  -0.4738290   1.1607911   0.4677505   0.2092234  -0.3603381   0.1141859
  -0.3313611   1.4446000   0.4200522   0.9905565  -0.6288641  -1.1235545
  -0.1175425   0.0163942   0.0919239   0.2612021   1.0310663   0.6916448
  -0.2225452  -0.2183235  -0.1191193  -0.0392830   0.3345160  -0.1422701
   0.1217847   0.2475572   0.1091559   0.1255644  -1.1938814  -0.4641417
  -0.0784686  -0.1145845   0.0635644  -0.5159439   0.5283909  -1.0814675
   0.0285282  -0.1204880  -0.0634597   0.3490769   0.3594287  -1.4285543
  -0.7056555  -0.1935366   0.5816535  -0.2019418  -0.2542286   0.2143904
   0.6196429   0.0621918   0.1074261   0.1216480   0.2228245   0.0019781
   0.5820103  -0.2441365  -0.8341337   0.6917637   1.4429169   1.3423453
  -0.0854023  -0.0726068  -0.0621897  -0.4760729   0.1724493  -0.2017182
  -0.0540905  -0.6510876   0.5632483   0.9701007  -0.5531610   0.2871473
   0.1945854  -1.4278919   0.3679811  -0.2224134  -0.2591048  -0.0665119
   0.4910284  -0.2116042   0.0361132  -0.0962944  -0.2431765  -0.0778848
  -0.1441817  -0.5069294   0.4084110  -0.0237975   0.0365925  -0.3703346
   0.6661723  -0.1496697  -0.8578943   0.0028290  -0.0526268   0.3248637
   0.4317973   0.7927443   0.3199215   0.3045584   0.2458778   1.5700679
   0.1929483   0.4027467   0.5609980  -0.3586013  -0.5437385   0.1479695
  -0.0276593   0.7718664  -0.7778137  -0.2017115   0.3874177   0.1946490
   0.2196061   0.6135070   0.7379151   0.2552110   0.7215291  -0.2394941
  -0.0006334  -0.1240872   0.2515139   0.4640039   1.0433538  -0.7063585
  -0.3359798  -0.0252074   0.0183838   0.3084239   0.2035344   0.2160289
  -0.6505482  -0.2163745  -0.9861770   0.3467466  -0.0342390   0.6645163
   0.0351043  -0.1124984   0.1841362  -0.8995197   1.8019265  -0.1784776
   0.0090540   0.3369812   1.1006751  -0.0609080   0.0477443  -0.0265064
   0.0820711  -0.2611866   0.1083426  -0.3978341   0.1221188  -0.3809608
  -1.2571966  -0.3089323   0.2281348   0.3794010  -0.4454402   0.0899238
  -0.8141301   0.3003011   0.1403705   0.1357782   0.1252677   0.2409307
  -0.1356579   0.5111666   0.6699696  -0.2993192   0.8709816   1.0388026
  -0.2889871  -0.0685140   0.0981039   0.5598327   0.5746559  -0.0100911
  -0.2612341  -0.6014057  -0.4132766   0.1795143   0.1808694   0.1709709
  -0.7254582   0.2530920  -0.9642801   0.6036592  -0.5280300  -0.6464627
   0.1959233   0.2350558  -0.0417777  -0.2896249  -0.4010769   0.9398457
  -2.6167568   1.0619343   1.2458518  -0.2974001   0.0966136  -0.2474514
   0.2109321   0.2344688   0.3798654  -0.7533990   0.2247194   0.8533981
   0.0673469   0.3347682   1.2629902   0.1018463  -0.0782297  -0.0780826
  -0.0768855   0.2016054  -0.1788542   0.1257380   0.0915954  -0.0069217
   1.2405824  -1.1377056  -0.6125652  -0.3343669  -0.0768528  -0.2457477
   0.1659357   0.1002464  -0.7827221   0.0784955   0.3386691  -0.1242281
   0.0679643  -0.8696693   0.2772218  -2.0786727  -0.6571945   1.2138433
   0.5485051  -0.1919918  -0.2644527  -0.1742136   0.1756147  -0.1615592
  -0.0260793   0.1062340  -0.0832829   0.5421593   1.0606788   1.0695264
   0.2836757  -0.4078765   0.0547557   0.0550203  -0.0786448   0.0214093
  -0.0127304   0.0010818  -0.0340322   0.0466936   0.0252738  -0.2733105
   0.9941846  -0.7002478  -0.9928165  -0.3816448   0.3054413   0.0390373
  -0.6867293   0.1179156  -1.4795980  -0.4946990  -0.4551598   0.1656501
   0.0717023  -0.1410625  -0.2126798   0.1039577  -0.0646021  -0.0827351
  -0.2164718   0.1831442   0.1792971  -0.6798995   0.7107121   0.3084350
   0.3031776   0.1930805  -0.4157621  -1.0170911  -0.6215843  -0.9127156
   0.2291684   0.2732053  -0.0975624   0.8250511   1.5555536  -0.4673427
  -1.0104047  -0.3886349   0.1319702  -0.0970496  -0.0678101   0.0463518
  -1.1685888   0.2468437   0.0348174  -0.9616185   1.0357461  -0.6401476
   0.0036395   0.4670482   0.0624202   0.4510140   0.1516899   0.7559440
   1.1397022   0.8998086   1.9284804   0.1601972  -0.0477280  -0.0011513
   0.0704341   0.1339200  -0.4799676   0.6639019  -0.2423510  -0.0212009
   0.0956487  -0.0884040  -0.3163139  -0.9378278   0.9317369   0.6552719
   0.2194952   0.6565312  -0.5441397  -0.7579155   1.2322676  -0.3312934
   0.0674174   0.0362677  -0.2153831  -0.2918002   0.2063093  -0.1791607
  -0.2062443   0.1457131  -0.3832748  -0.7421064  -0.9933797  -0.6160598
   0.2816161   0.0322915  -0.3571339  -1.2650625   1.9341492   1.0083163
   0.2687170   0.3074791  -0.0191080  -0.2462066  -0.9232912   0.5431720
   0.1308461   0.3035645  -0.2387711   0.0631227   0.0310013  -0.0096919
  -0.9514795  -0.9026555   0.4590455  -0.1514280  -0.0258891  -1.6588400
  -0.0362800   0.0277803   0.1532499   0.5274656  -0.4166566   0.4422164
  -0.3568093  -0.1125778   0.3688294  -0.2690441   0.3356975   0.2272362
   1.0255711   0.2355001   0.2081076  -0.4902574  -0.0594247   0.6150280
   0.0797032   0.1687456   0.1658714  -1.3188495   0.6234353   0.9045601
  -0.4974684   1.2450721  -0.1388177  -0.0591676   0.5925802  -0.6000288
  -0.0075032  -0.2320368  -0.0885146   0.1331558  -0.0360069   0.2421434
   0.1447393  -0.0032365  -0.1387153  -0.3431379   0.4715848   0.0288104
   0.0240059   0.1630873   0.4746725  -0.0543574  -0.8391695  -0.4957891
   0.2945228   0.2420028   0.0381407  -0.1515168  -1.0074753   0.4691879
  -0.1390981  -0.2248293  -0.3584828   1.5173764   0.3459449  -0.8021854
  -0.7126341  -0.7481110   0.1858041  -1.0155308   0.6147862  -0.6371298
   0.1372902   0.0327109  -0.2003202   0.6810157   0.3219688  -0.0261824
  -0.3680585   0.1070403   0.7767583   0.5880423  -0.6526694  -0.4774648
   0.1005236   0.2751830   0.1949135  -0.1719066  -0.0422423   0.2228817
  -0.2377103   0.1108354   0.0841075   0.3109585  -0.7970439  -1.2012300
   0.1407655   0.1781952  -0.3832223  -1.3381705  -0.2715461  -0.6652258
  -0.4663844  -0.2919348   0.0878012  -0.2233828  -0.7640980  -0.3965708
  -0.4771442  -0.1026013  -0.1156904   0.0608995  -0.1258758  -1.9476624
  -0.2537151  -0.7968311   0.6876515  -0.7658738   0.3137471   0.1181717
  -0.1990266  -0.0587138  -0.1244611  -0.0821807   0.5031656  -0.2554716
  -0.4553816   0.6080327  -0.2429198   0.0201800  -0.0702473   0.1022170
  -1.3788797   0.7123104   0.0202378   0.3865831   0.4060974  -0.3307877
  -0.0979053  -0.6545513  -0.0914517  -0.0528290  -0.2637506  -0.1078623
  -0.3093297   0.1248550  -0.2345364   0.2302033   0.4343640   0.2890906
   0.1349465  -0.1316142  -1.4704156  -0.2622582   0.1635312   0.2075681
  -0.1913618  -0.3312514  -0.8561656   0.0963989  -0.0063151   0.0499635
  -1.6098812  -1.5414981  -0.1285710   0.7743084   0.1018735  -0.0696024
  -0.0079396   0.1422976   0.5187908   0.3045881  -0.2719974   1.4176889
   0.4583142   0.2017604  -0.3779913  -0.2346808  -0.0236235   0.1134459
   0.0600854   0.1793498   0.1440663  -0.0435038   0.2633599  -0.2017561
   0.5216980  -1.2178050   0.0249960   0.1704964  -0.1908064   0.0920731
   0.4726427  -0.1758587  -0.3068249  -0.3385375   0.3352413  -0.2366615
   0.4407348  -0.3577452   0.0809638  -0.7970387  -0.0252037  -0.9085678
   0.1456109   0.2162079  -0.0449024  -0.4758444  -0.3377376  -0.3311596
  -0.0157258  -0.0566689  -0.0448362   0.1696255  -0.1617283  -0.2518467
   1.0750719   1.0806314   0.0524207   0.1167327  -0.0752474   0.2069526
   1.1788172  -1.0502284  -0.5459728   0.2450913  -0.2800898   0.1267033
  -0.0236009   0.7164730   0.2214838  -0.0545527  -0.7765040  -1.0153033
   0.1233232  -0.2128540   0.7809063   0.0122759  -0.2109791  -0.0484089
   0.2943917   0.7916242   0.3005882   0.0759710   0.6041416  -0.1737568
   0.4830143  -0.0017837  -1.0496010   0.3622868   0.1983314   0.0187127
   0.1993406   0.2000288  -0.0339506  -0.4177925   0.5171276  -0.0662409
  -1.4163917  -1.6861859  -0.3052890   0.3183362   0.1578438  -0.1083790
   0.2050395  -0.1376007   0.1154421   0.2995652   0.0374058  -0.0491491
  -0.3114944   0.6167313   0.2837800  -0.7697983   0.2204793   0.2039535
   0.0284252   0.1614335  -0.0362521  -0.4345274   0.5807489  -0.1551393
   0.2002705  -0.1083019  -0.2465712  -0.1625391  -0.0438831   0.4711588
  -0.4771877   0.3346641  -0.0580618   1.1946206  -0.2465978   1.2241584
   0.1103196   0.0933157   0.1775052  -2.3224061   0.6143733  -0.2007564
   0.2908304   0.0309955  -0.1183660  -1.1951107  -0.4867115  -0.6237484
  -0.3941548   0.6772369  -0.2894911  -0.1805532   0.1117102  -0.1524971
   0.3771626  -0.4660561  -0.0277012   0.1867621   0.9107048   1.0911867
   0.2579604   0.0777778  -0.1627987  -0.7279048   0.1160022   0.5287233
   1.2884341  -0.3560517  -0.0466700  -0.0975433  -0.1510257  -0.0008462
   0.3363246  -0.5495138  -1.0112050   0.3868437  -0.3282050  -0.2742740
  -0.1798471  -0.3271400   0.5531976   0.7703099   0.2952710   0.2925420
  -0.4709397   0.1852999   0.4925579  -0.0131358   0.0123283   0.1867191
  -0.4469390   0.0654681  -0.3146480   0.8990707   1.4159126  -0.4984801
  -0.1512484   0.0674531  -0.2056611   0.0440427  -0.0569312  -0.0327376
  -0.1172529   0.3211783   0.0634819  -0.4176192   0.1741413  -0.0245943
  -0.2016318  -0.1091659   0.1203538  -0.4705024  -0.1018110  -0.3885878
   0.2878532   0.2538387  -0.0553444  -0.6567641  -0.0588196   0.0114279
  -0.0951442   0.3293912   0.4234665   0.5069735  -0.0727744  -0.0192160
   0.1183768  -0.0164731  -1.7806381   1.1409523   0.6011962   0.3569637
  -0.2595531   0.0601150   0.4427238  -1.4424805  -2.7272562   0.9585778
  -0.2699537  -1.2977653  -1.0341788  -0.1837066   0.1480408  -0.3167770
   1.4240500   1.3151350   0.8944489  -0.4561082  -1.0232773   1.3568912
  -0.2838933   0.3369435  -0.2594128  -1.2612341   0.2070235   0.6142705
  -2.0019384   0.1731010   0.0599855  -0.6333674   1.0426059   0.4590949
   0.1756020   0.2721855  -0.0005542  -0.0151688   0.0531786   0.1696616
   0.0749326  -0.0492411  -0.2363872   0.6367618  -0.1907451  -0.9976436
  -0.0323116  -0.0653085   0.0694556  -0.6554824  -0.9531690   0.2413990
  -0.2970332   0.1839797   0.0787142  -1.3518259  -0.4566067  -1.2189457
  -0.1050037  -0.2970529   0.2849136  -1.3443166  -1.2263888   0.9431659
  -0.0992660   0.3526127   0.4042645   0.5135403  -2.1782072   0.4690039
   0.2069135  -0.1644275   0.0347914  -1.1317810  -0.3701273  -0.9992386
  -0.2597976  -0.4943048  -0.0891752   0.1250802  -0.1827061  -0.1671403
  -0.1609693  -0.3615628  -0.1204276  -0.3162742  -0.3849455  -0.4547908
   0.1452222  -0.1613780   0.4683439  -0.2490045   0.1378832   0.5774088
   0.1356478  -0.2600815   0.0620772  -1.3388056  -0.6328685  -1.1286422
  -0.5889114   1.3318495  -0.4596351   0.1630015  -0.2069098   0.0061917
   0.2586226   0.1708619  -0.2479145  -0.2979895   0.3102233  -0.4119872
   0.3457217  -0.2887814   0.0758498   0.7499466  -1.0359583   0.4051730
   0.3024078   0.0460136   0.3086963  -0.7030809  -0.9201682  -0.0177116
   0.1309716   0.4046666   0.1452879   0.7218713   1.2565352  -0.4174185
  -0.2443405   0.3028902   0.0268954  -0.2951289  -0.1090891   0.5091678
   0.1548310  -0.2150352   0.0784484   0.0074409   0.1313966   0.0475781
   0.2826616  -0.1832028   0.1475133   0.2981425  -0.1729519   0.1691658
   0.0507031  -0.0535915   0.0913664  -1.6734608  -0.2147687   0.6630810
   0.2995410   0.0368637   0.0473043   0.2916282  -1.0856317   0.7314215
  -0.2936530  -0.5725896   0.6561636   0.1376761   0.3657430  -0.0972300
   0.0289777   0.0277447   0.1229168   0.3999001  -0.1496947   0.2199153
   0.1182007   0.0535596   0.2519525  -0.3058777  -0.1839579   0.1241698
  -0.2858775   0.0950488   0.2024573   0.9925870  -0.3164135   0.7837208
   0.3123897   0.1317254  -0.1224602   0.4319978  -0.3963275   0.7704331
   0.0140413  -0.5003068  -0.4775140   1.5602428   0.0465376  -0.9492940
  -0.7192997   0.2101022   0.4204061   0.0027381  -0.1677277  -0.1161796
   0.8237793  -0.2894634   0.4843096   0.1428138  -0.1583553  -0.1925710
  -0.3022348   0.0425295  -0.0895739  -0.2514257  -0.0434913   0.0619612
   0.3341400   1.1580227  -0.5371130  -0.1587408   0.1122851  -0.0830000
  -0.0413954  -0.1536847   0.1761000  -0.1455463   0.0841289   0.2126299
   1.9086964   0.2772390  -1.3968404  -0.1079868  -0.6862995   1.0248231
   0.1866585  -0.0548745  -0.1800998  -0.5569158   0.5623937   0.0327378
   1.0401230   0.6441264  -0.4887364  -0.3832777   0.0752979   0.0390901
  -0.1564325   0.0518013  -0.2095433  -0.1520510  -0.0428465  -0.1458446
  -0.0261895  -0.1265350  -0.0866186   0.0559130  -0.3447748  -0.1481495
   0.4040789  -0.0341187   0.0196547   1.0075177   0.6543751  -0.6450796
  -0.0878004  -0.2217749   0.1338710   0.7460503   0.1870703   0.1139816
  -0.0632877   0.1336908  -0.1213084   1.2652536  -0.2693958  -0.7947870
  -0.1711334  -0.9436383   1.2566230  -0.0258796  -0.5295988   0.1517859
   0.0846013  -0.2846329   0.1921664  -0.4478246  -0.0584567  -1.0691410
  -0.3921917   0.0856503   0.0826613  -0.4637007  -0.2890707  -0.1173726
  -0.1662562  -0.4361032  -0.0661155  -0.0030813   0.2934533  -0.0613758
   0.1000373   0.2382983  -0.0816902   0.1796219  -0.2564481   0.0205716
  -0.6691973   0.5524530  -0.5277960  -0.2481762  -0.0347534   0.0832862
  -0.4684884  -0.2114194  -0.3662583  -0.4453901   0.0322829  -0.1515206
  -0.4141712  -0.2285210   0.1891546   0.1770807   0.0637786  -0.0806416
  -1.9070920   0.1452704  -0.8802265   0.1701094   0.3088898   0.1435612
   1.5119237  -0.2777553  -0.2270226   0.1504090   0.2738067  -0.1299643
  -0.9498832  -0.5449341   1.3882985   0.1815448  -0.2236852   0.1723550
  -0.2526021   1.5619524   0.1599962   0.5762083   0.2746797  -0.5699387
   1.0143922  -0.6744121   0.4337422  -0.1003871  -0.1113194   0.2960592
  -0.7996294  -0.0564809   0.6424382   0.0963033  -0.8100901  -0.5574597
  -0.9814792  -0.0082206   0.4479099  -0.0215109  -0.1905419   0.0519408
   0.4922841  -0.0694954  -0.0770564   0.0113892   0.1383474  -0.2669749
   1.1018489  -0.3726540  -1.2704010  -0.0781419   0.0114897   0.2678369
  -0.3014532  -0.0937367  -0.0674882   0.2282267  -0.0106685  -0.0119907
  -0.2198300  -0.1795449   0.2413450   0.1502952   0.0934559   1.0770472
   0.2007828  -0.0944208   0.1583829   0.8024884  -0.2338560  -0.0007021
  -0.6817562   0.9293515   0.0587691  -0.0545698   0.0074322  -0.1670240
   1.4356057   0.7050909   0.4801489  -0.8831946   2.3280802  -0.1777425
  -0.2091884  -0.2633375  -0.4169683   0.1617705   0.2556024  -0.5660824
   0.9996003  -0.1926917   0.2378400  -0.1691684   0.1231244  -0.2161258
  -0.3177398  -0.3661176  -0.6387917   1.2814086   1.7115562   0.4868380
  -0.5041635   0.3415548  -1.4132391  -0.2344176   0.2013549  -0.2226305
   0.0260945   0.0580597  -0.1268444  -0.0467054  -0.5159760   0.0096079
   0.5673328  -0.3000756  -0.1520471   0.2990101   0.4787792   0.2496271
   0.6141915   0.2676725  -1.1622813   0.5004957  -0.2734611  -0.1144769
   1.2180866   0.3847730  -0.3283191  -0.0694489  -0.0820657   0.0439608
  -0.3197903   1.0046757  -0.2347828  -1.8113062   0.6598513   1.4847790
  -0.2109702  -0.0467875  -0.5731266  -0.3641991  -0.0086979  -0.0386760
   0.2214255   0.1975942  -0.0680763  -0.0130439   0.3640362  -0.1502666
  -0.3690915  -0.0646708   0.1065600  -0.0091919   0.0128426  -0.0242946
  -1.6518312  -0.6156386   0.6632148  -0.0326945  -0.0407061   0.0225638
  -1.2534108  -0.6512282  -0.6583841  -0.5811280   0.0062135   0.2851900
   0.2067197   0.1218570  -0.2110040   0.7977389  -0.0825310   1.0283232
   0.1529709  -0.2695854  -0.0671170   1.7020074   0.4878525   0.0340645
   0.4657752  -0.7752494   0.1515768   0.1445922  -0.1895196   0.3815958
  -0.4679459   0.0730622  -1.0546674  -1.3975668   0.4005618   0.2440157
  -0.2483009  -0.4779713   0.1294495  -1.2941975  -0.4336297  -0.8511250
  -0.0717786  -0.1666393   0.2302478  -0.1446122  -0.2250099   0.0863908
  -1.4907576   0.7131031   0.1425996  -0.1972547   0.5147328   0.6137543
  -0.4052233  -0.3091416   0.3213367   0.6096709  -1.1785723   1.1300480
   1.2161426   0.0692829  -1.0103842   0.0635291   0.1627552  -0.4803459
  -0.1439875  -0.2740353  -0.0453042   0.3163747   0.1502621   0.2588220
   0.5551769   0.1892306   0.6848474  -0.1277483   0.1488053  -0.2214457
   0.5671809  -0.3868565   0.2993771  -0.2452848   0.3389208  -0.3625246
   0.7415803  -0.6829405   0.1597801   0.1529465  -0.2439274   0.0091241
  -0.5750143  -0.0052242   0.4880333  -0.1374721   0.4766395  -0.2682374
  -0.6561185   1.2613163   1.2491192  -0.1680283  -0.0581099   0.2346394
  -0.1217501  -0.8862619   0.8966024   0.4961437   0.0901689   0.4342502
   0.1145786   0.2908843   0.1087640  -0.0951827   0.0294468  -0.1596375
   0.4801879  -1.2523291  -0.0188865  -0.1874461   0.1043387   0.0963964
   0.7185769  -0.1659398  -1.4359629  -0.0135777  -0.3183329  -0.0463938
   1.1102576   1.5899544  -0.9345859  -0.1490528   0.7130194  -1.0655288
  -0.0798161  -0.1098087  -0.1120707  -0.1104671   0.0466850   0.2225905
  -0.3295602   0.1043109  -0.1241609   0.0073466   0.8626824  -0.7340630
   1.3402553  -0.4909599  -1.0180614  -0.1870694  -0.0214176   0.1472182
   0.4612995   0.0626567   0.1209278  -0.3210579   0.1244641   0.0327067
   0.4883747  -0.1677227   1.4768272  -0.3442826   0.0659500   0.4999848
   0.7193170  -0.6783456  -0.7794000   0.4918910  -0.1820906   0.5203222
  -1.1012141   0.3437695   1.1704849   1.1038045  -0.0827638   0.7399597
   0.0919222  -0.4615011   0.0488136   0.0047588  -0.4791679  -0.0825045
  -0.1745826   0.0760022   0.0236221   0.0476968  -0.3335826  -0.0227631
   0.0110900  -0.0600497   0.4130152  -0.1793243   0.0993445   0.3265486
  -0.9312768  -0.8961442   0.5078041   0.1822531  -0.0097528  -0.2557489
   0.3775289  -0.0131820   0.0102140  -0.1594722   0.1185891   0.5001375
  -0.0398332   0.7544987  -0.7751632   0.1109541   0.0288517  -0.0470991
   0.1405905   0.1052053   0.2127712  -0.2446914   0.0657998   0.5410223
   0.6362490  -0.2917964  -1.5703947   0.3157442   0.1072726   0.1580392
   1.3984585   0.5677712   0.9533205   0.0569917  -0.2191246   0.1652988
   0.0516735  -0.0313857   0.4216983   0.2839446  -0.5642083  -0.1454230
  -0.3820387   0.1560924   0.4269474  -0.1515165   0.8112663   0.7048061
  -0.0370144  -0.1493725  -0.0537143  -0.1857873  -2.4980221  -1.4996917
  -0.2190051  -0.3683078  -0.2607886  -0.5573149  -0.3385365  -0.3416980
  -0.4535504   0.0189252   0.1474811   0.0418935  -0.0078885   0.1571855
   0.0702874   0.0626047  -0.1069074  -0.0721017   0.0295114   0.0909061
  -1.3613184  -0.9327264   1.0586148   0.0461863   0.3167179  -0.0465909
  -0.5391807  -0.7281583  -0.6355360   0.1312820   0.0789404   0.2240211
  -0.0546885  -0.8392151   0.4007525   0.9661902   1.1285920   0.1060921
  -0.1433085   0.0731632  -0.2907792  -0.1422918   0.4311352  -0.3685478
  -0.3338159   0.1377821   0.0256299   0.0484464  -0.0930421   0.1818927
   0.1284904   0.0415090  -0.1961918  -0.3094062   0.0374859   0.0834537
  -0.5542896   0.9147776  -0.2902147   0.5136834   0.1092112   0.2228623
   0.1612149   0.9136712   0.9239962   0.1483208   0.2807306  -0.3583895
  -0.0629985  -0.5311302  -0.4530492  -0.0152573  -0.6817145   0.6701164
  -0.2712721   0.2562007   0.1342566   0.0360498  -0.0099228   0.2979223
   1.9642347  -0.5915468   0.0671565   0.3650582  -0.2813064  -0.0946240
   0.5575470  -0.2920038  -1.6512215   0.0083335   0.1693385  -0.0645415
   0.1733021   0.5411041   0.2790897   0.0947161  -0.1513169   0.2551335
  -0.4631703  -0.0341193   0.0254233   0.2229870  -0.3433583   0.2394211
  -0.3107592  -0.3033129  -0.0263945   0.4477520  -0.3391568   0.1297241
  -0.0307494  -0.2181739   0.1404466   0.0214761  -0.0774720  -0.1836021
   0.6594429   0.1994984  -0.5315294  -0.1460864   0.3637710  -0.1988994
  -0.4616067   1.4836238  -0.2258193  -0.0147254  -0.3879270  -0.0509840
  -0.4008267  -0.6870002  -0.2230655  -0.0550188  -0.2682960  -0.1586077
  -1.7937297  -0.6255858  -0.7432270  -0.3515580   0.3627938   0.2069939
  -0.5676739   0.8912538  -0.8895947  -0.0596702   0.1966911  -0.1375973
  -1.2216601   0.0822304  -0.2342876  -0.7278969   0.9544009   0.1618358
   0.9691902  -0.0970015  -1.5519033   0.1463597   0.0325967   0.1604360
  -0.2458075  -0.0455966  -0.0428594  -0.0932522   0.0241105   0.3201236
   0.0796259  -0.1589599   0.0393115   0.0496334   0.0605845  -0.1681677
   0.2303249  -1.5125141   0.3869702   0.0178952   0.3274105   0.0609256
  -0.1409334  -0.0256201   0.0368985  -0.1684362  -0.0949845   0.2228724
  -0.1457881  -1.1756223  -1.9088465  -0.9750318   0.2131072   0.5305592
   0.5488327   0.3141105   0.0683488  -0.2750410   0.2517573  -0.0459282
  -1.1321328   0.1295023   1.0911735  -0.3276906   1.0490548   1.6420061
  -0.1803269  -0.2133285   1.6954587   0.3267089   0.3370830   0.1954914
  -0.2353301  -0.3299677  -0.2656511  -0.0111034  -0.2235027   0.0827978
  -0.3580947   0.0277047   0.9995475  -0.3418170  -0.2002017   0.1165029
   1.1382266  -0.3322147   0.2724537  -0.2083098  -0.0123755  -0.1969144
  -0.7923832  -1.1919932   0.8110793   0.3452307   0.4181341   0.1397360
   0.4953952   0.6021974   0.2212102   0.2395381   0.1060475   0.0280173
   1.1582660  -1.9134322   0.4587540  -0.3048803  -0.0271313   0.2179225
   0.9708739  -0.7553498   0.7715475   0.0236000   0.1820555  -0.0051622
   0.5227086   0.2231838   0.0320515   0.0558643   0.2281493  -0.2171734
  -1.0689504   0.3642560  -0.9546856   0.4660801   0.3615477  -0.2474509
  -1.5830608  -0.3347026  -0.1443965  -0.3324663  -0.0984604   0.3159084
   0.1216251   0.1590244   1.3960757  -0.1508012   0.0758696   0.1694829
   1.6848205   0.2369744   0.9384995   0.6202014  -1.0229328  -0.5562827
  -0.3900080   0.1898541   0.4239339  -0.1768559  -0.1922320  -0.0794858
   0.3550989   0.0572221   1.1044300   0.0863172   0.0832520   0.1046293
  -0.1606435  -0.2212389   0.1974159  -0.0147208  -0.0152088   0.0619780
  -1.1192683  -0.5087645  -0.1826183   0.1964954  -0.2592593   0.0249110
  -0.9353838   0.4228063  -0.1476063  -0.1137841  -0.2008439  -0.0750636
  -0.1097302  -0.2013111  -1.1659086   0.1173423  -0.6033267  -1.7645254
   0.3691563   0.4596613  -0.1452221   0.0956661  -0.3057032   0.5766893
  -0.1934725   0.0394047  -0.2815947  -0.0545483   0.0650836   0.1276185
   0.1185995  -0.2601092  -0.2469807  -0.1861043   0.0998542  -0.1635465
   0.1729756  -1.2295394  -0.4289424  -0.2171742   0.0258288   0.1620642
   0.1386219  -0.7418521   0.3196405   0.1365429   0.2245317  -0.0735830
  -0.6699767   0.7741734  -1.4598894   0.1420580   0.3617472   0.0760796
  -0.5978966   1.5077037  -0.0155171   1.9211127  -0.1046168   0.5652205
  -0.3298196   0.8565748  -1.0997536   0.2235254   0.0803667  -0.0950908
  -0.4517229  -0.4537648   0.5033206  -0.1410145  -0.6144298  -1.4005015
   0.1411395  -0.1939789  -0.3231983  -0.8273585   1.3462306   0.2039820
  -1.3435274   0.4615913  -0.5221282  -0.9730276  -2.0035903  -0.7517063
  -0.1218259  -0.3094416   0.4090969   0.0804006  -0.2884256   0.0828975
   0.0649664  -0.2276308   0.2565022  -0.1739400   0.2476602  -0.2544916
  -0.1579415  -0.1463717   0.1707176   1.0666032  -0.2000838   0.0395352
   0.0275042   0.0999709  -0.8523994   0.1510356   0.1066407  -0.1829970
   0.1674721   0.8679198  -0.6292310  -0.0731603  -0.0527421  -0.1822224
  -1.0116726  -0.1880232  -0.3118787  -0.1582328   0.1400632  -0.1321948
  -0.1362746  -0.2580494  -0.1420803  -0.0893081   0.0138383   0.1052449
   0.6384518   0.4704001  -0.2600124  -0.3504823   0.0660438  -0.6271172
  -0.1002522   0.2706011  -0.0677381  -0.1114193  -0.1173336   0.1674464
   0.9670396   0.0130121   0.4319809   0.2450135   1.2041033   0.2973733
  -0.0104489   0.2161282  -0.1621891  -0.6375045  -0.1964290   0.9138635
  -0.4600155  -0.0110354  -1.9526821   0.0502419   0.2464245   0.0425552
  -0.0162147  -0.0404025  -0.1036337  -0.1727238  -0.0096287   0.0479170
  -0.0043022   0.0955947   0.2476010  -0.0940379   0.0792488  -0.0406513
   0.0323595  -0.0572998   0.0086978   0.1387257  -0.5867351   0.1674169
   0.2496194   0.3772756  -0.3571205  -1.0266182  -0.5555673   0.7344639
  -0.0462740  -0.0028318   0.0049602   1.1930848  -0.2945886  -0.6327158
   0.9067052   0.4167392   0.4630317  -0.2031280  -0.3635439  -0.0487965
  -0.3990660   0.2487374   0.8083416   0.1424393  -0.0535524  -1.4792612
  -0.0177073  -0.2321598   0.1529494  -0.3827337   0.0886272   0.0271092
  -0.2921452   0.4900856   0.0032348  -0.7092889  -0.4063053  -2.3209375
   0.9428018  -0.3743316   0.7717174   0.1181980   0.1820289  -0.1405205
  -0.1290343   0.0222189  -0.0297430  -0.2149734   0.0464932  -0.3265189
  -0.1997585   1.4816556  -0.5615474   0.0129937   0.1811619   0.0439104
   0.0403254   1.2613406   0.1673666  -0.3348510  -0.7677173  -0.1784107
   0.0318486   0.1719399  -0.2087437  -0.0451805   0.2228629   0.0894311
  -0.0377639  -0.3673292   0.0461034   0.0312075   1.0314374   0.2825278
   0.2350795  -0.3100105  -0.0548293   0.5988922  -0.0986329   0.3059008
  -0.2093424   0.4646030  -0.1608781   1.2540089   0.0589065   1.0950354
   0.5319683  -0.9616320  -0.1844753  -0.1789142   0.1411530  -0.1704455
   0.1852866  -0.0370023  -0.3050681   0.0292577   0.0915165   0.1336910
  -0.1694479   0.2746119   0.0771405  -1.2509648   1.0661369   0.3218375
   0.1710423   0.0861846   0.3784204  -0.4908737  -0.7606491   0.3650945
  -0.0291542   0.1768749   0.1012916   1.4420384   0.3117982   0.7810687
  -0.0171112  -1.4928267  -0.9957381  -0.0971156   0.1096625   0.0019983
   0.0723417   0.0049649   0.0688422  -0.1908395  -0.2948257   0.2423536
  -0.7207262   0.4477327   0.7483943   0.1604598  -0.6408598  -0.7482067
  -0.3372076  -0.4375660  -0.2808247   0.1010491  -0.1944898  -0.0554834
  -0.0419653   0.0597057   0.1444064   1.4293177   0.7586664   0.9189440
  -0.1523899   0.0479531   0.1686526  -0.2112270  -0.4161964   0.9524811
  -0.4105737  -0.1582033   0.2666363   2.1662504  -0.4091412   1.0701482
  -0.1338255  -1.0254299  -0.9386396  -0.1888011  -0.1275571  -0.2594952
   0.0020919   0.1363727   0.2307833  -0.1466985  -0.1982275  -0.5847487
   0.1733076   0.0659250   0.2004393  -1.6449393   1.6817224   1.4027127
  -0.5083036  -0.2398707  -0.0648760  -0.2283302  -0.1918979   1.0941463
   0.1988206  -0.2299493  -0.0271392  -0.8180295  -0.5888305   0.3084915
  -0.2901436  -0.1857354   0.5793716   1.2895794   0.8249708   0.5263931
  -0.3154679   0.4648402   0.4649398   0.1169750   0.2872001   0.0675750
  -0.1240611   0.2923623   0.1088219  -1.2575255  -0.5822527  -0.1480922
  -0.1616643  -0.3562879   0.1669236   0.8104460   0.7137067   0.3791680
  -0.2286269   0.0902167  -0.2720662  -0.0919121  -0.4126587  -0.6988890
  -0.4332432  -0.3162575   0.5419230  -0.0943879  -0.3755960   0.3521678
  -0.1865513   0.8308718   0.3805341   0.0293138  -0.8366153  -0.4828724
  -0.1115208   0.0537995   0.1540516  -0.1790580   0.0179560  -1.1323301
   0.2203073  -0.0824177   0.3202874  -0.1492007  -0.2019562   0.2689534
  -0.1432138   0.6471825   1.1644378  -0.7048283  -2.1505424  -0.4148766
   0.1880566   0.1537791  -0.0305392   0.9473372   1.2406705  -0.8530712
   0.5801187   0.3345757  -0.9551817  -0.2223296   0.1518558  -0.7486031
  -0.3354807   0.1591592   0.0292546  -0.4657639   0.0422873  -0.0607811
   0.2999381  -0.2694398   0.5301245   0.1418257   1.0988377  -0.1955217
   0.0328443  -0.1511995   0.3401137   0.0597207  -0.6768105  -0.1634946
  -0.0822083   0.0143497   0.0686156  -0.6857127  -1.1194139   1.3654341
  -1.0766154  -0.9110950   1.1141583  -0.3754537  -0.5411553   0.1111440
   0.2165521   0.1589158   0.2496279   0.0378601   0.0397242  -0.0188974
  -0.0683575   0.0282773  -0.2676536  -1.1047389  -0.0404467   0.2652904
   0.1711261   0.1230896  -0.0403299   0.6395742  -0.6373766  -0.5762533
   0.3271018  -0.2003993   0.1804549   1.1238003   0.1315199   0.1537155
  -0.7635539   0.1167479   0.0793938   0.1537099   0.2434956   0.1439765
  -0.1159823  -1.5284030   0.6097334  -0.7903369  -0.6926011  -1.1650298
   0.0423723  -0.0185104   0.1802797  -0.1601905   0.0378419   0.0969470
  -0.0290772  -0.0361402  -0.2314711  -0.3664593   0.2608564   0.2910589
  -0.1519718  -0.2035776  -0.4353242   0.1287651  -0.2395476   0.2185736
   0.0283219   2.2424722  -1.4270795   0.1413429  -0.1760649  -0.0924799
   0.8846766  -1.3835449  -0.2037000   0.0504864   0.1555229  -0.1060818
   1.3978557   0.5070072   0.5302923  -1.2302150  -1.1820000  -0.0099023
  -0.2621397   0.0494866   0.0539206  -0.1865644   0.4505115  -0.7768394
   0.8976912   0.3749352   0.1725189  -0.0458627   0.1195782  -0.0475940
   1.0710953  -0.1718656  -1.0784838   0.2111126   0.3218377   0.7010165
  -0.1942627   0.0650818  -0.2633496  -0.6817273   0.1156297   0.9241506
   0.1393375   0.1778714  -0.2232322  -0.1472918  -0.0479017  -0.1708310
  -0.6772158  -0.2583866  -1.0303322   1.0777741  -0.0859175   0.5219084
   0.1507881  -0.0188566  -0.0403059   0.5600978   1.3545359   0.7070560
  -0.9999140   1.1047149   0.9603136  -0.3355538   0.3996011   0.2771453
   0.1190672  -0.2157777   0.0869717  -0.0692661   0.0786756   0.1922357
   1.1445737  -0.2666955   0.6101146  -0.3578123   0.1756495  -0.0527662
  -0.7477340  -0.1848057   0.3863705  -0.0423846  -0.2645006   0.2679220
   0.0717569  -2.1262042   1.5143561  -0.1613298  -0.1001926   0.1277273
  -0.2224439  -0.8794935   0.2941968   0.1907572  -0.4740250   0.4458821
   0.8020586  -0.7233852  -0.4930676   0.0060214   0.1435137   0.1086047
  -0.0438363  -0.2683708  -0.2027624   0.1189429   0.4203086  -1.1479925
   0.7305391  -1.2324251  -0.1595736   0.2632192   0.2286266  -0.0894974
  -0.0944352  -0.0555429   0.2873227   0.0236633  -0.2077088  -0.3543512
   0.0855158  -0.1418860   0.5661427  -0.1818118   0.4240193  -0.1309394
  -0.1413813  -0.1449592   0.6081877   0.0607641  -0.0017506   0.0362862
   0.0992690   0.2255373  -0.1646528   0.1035803  -0.1584675  -0.2246923
   0.8335264  -1.3680690  -0.3254974  -0.7030559   1.2248426  -1.2449234
  -0.0457728  -1.2507556   1.0844354   0.0971166  -0.0159491  -0.2779305
  -1.6110387  -0.7992774   0.0336715   0.0482765   1.1021701  -0.2517461
   0.0786826  -0.3388069  -0.0865425   1.4471308  -1.2440235   0.1804017
   0.5598106  -0.6313088  -1.0528617  -0.5122502  -0.8289386   0.8792802
   0.3437843  -0.1949826  -0.0832563  -0.3747390  -0.1126843  -0.0828688
   0.3133127   0.1954903  -0.0546440   0.5470898   0.1866429   0.7434387
  -0.1618272  -0.0023205  -0.1249783   0.0161637  -1.4192499  -0.5885266
   0.2351554  -0.1949233  -0.1885424  -1.1552128  -0.2562107  -0.5471198
   0.0137692  -0.3516697   0.1702936   0.0773923   0.1557461  -0.0606975
  -0.0784522   0.0214242   0.0406488  -0.0534934  -0.3783224  -0.1717064
  -0.1359854   0.0517339  -0.3214821   0.3039646   0.3090638  -0.0852130
  -0.2252990   0.1913510  -0.1358983  -0.0451389  -0.1931121  -0.0247271
   0.0602142  -0.3971618   0.3217107   0.6345393  -0.6933295   1.0584033
   0.2551915  -0.2714392  -0.0695272  -0.4445532  -1.2327357   0.9538859
   0.9865468  -0.5271098  -0.4015621   0.1735931  -0.0902442  -0.1957513
   0.5389967   0.5374436   0.2370275  -0.3444408  -1.1346902  -1.0791776
   0.0027959   0.0442061   0.1233017   0.0016325  -0.2784193   0.2817777
  -0.0876535  -0.1532274  -0.1803695  -0.0176504  -0.1328943   0.3361856
  -0.2026355  -0.1497725   0.2864583   0.2004414  -0.8251631  -1.2839946
  -0.2369259  -0.0368803  -0.2532216   0.4879199   0.0584857  -0.4417350
   0.3512014   0.1872068   0.0760258   0.6480680  -1.1648609  -0.5076657
  -0.3607088  -0.3782832   0.5568365   0.1010505   0.1866541  -0.1557048
  -1.1709650   0.0293334  -0.2629920  -0.5945000   0.1586230   0.3607196
  -0.0878912   0.0247305   0.1234160  -0.5233085   0.0063754   0.2828239
   0.0084343   1.2466725  -0.6647063   0.2590746   0.0308732   0.2137258
  -0.4208164  -1.3641747  -0.7729269  -0.2344505  -0.2779181   0.1916774
  -0.4151554  -0.0359220  -0.1732693  -0.9575129  -0.5779696  -0.6525853
   0.9528249  -0.3520615  -1.2911597  -0.0675410   0.0646874  -0.1797336
  -0.0074753  -0.7535777   0.5647451  -0.6809349   0.6254945   1.5084635
  -0.0919843   0.1973683  -0.1088092   0.1733304  -0.0944142   0.1461693
   0.3256407   0.4277455   0.1612561  -0.6046557  -1.2703429   0.2710829
  -0.2098407  -0.0901103   0.1547664  -1.9000066   0.0243359   0.1822573
  -0.1876982  -0.2857149  -0.0075325  -0.1688332  -0.6270256  -0.1486717
   0.3789442  -0.8008447  -0.7026125   0.0470119   0.0534515   0.0693942
  -0.2705058  -0.4972729   1.0811635   1.2042972  -1.0894541  -1.2537411
   0.0188391  -0.1019229  -0.0372558   0.3500177  -0.0151775   0.0020939
   0.6612349   0.1672336  -1.0851215   0.2096037  -0.1210440  -0.1210485
   0.0479221   0.7748905  -1.3140246  -0.0922037   0.1048622  -0.0968749
  -0.2437867   0.2255505   0.3696159   0.4260902  -0.4875441   0.6907527
   0.4022420   0.5192757   0.1739739  -0.1381796   0.1505029  -0.0889293
  -0.8417963   1.2258640  -0.4079457  -1.0109930   0.2504473  -0.2085087
  -0.1814878  -0.1118462  -0.4057646   0.1237063  -0.1403276  -0.1262551
  -0.0156453  -0.5939849  -0.0226814  -0.3485356   1.1881850  -0.8678364
  -0.0147966  -0.1680712   0.0434656  -0.1631739   0.8571052  -0.9217627
   0.0286809  -0.2001532   0.0709561  -0.4811798   0.0612587  -0.3378421
  -0.1291044  -0.5416363   0.6783810   0.0384633  -0.0850622  -0.0038313
   0.7047213   0.4557364   1.4132333  -0.1531028  -0.0222256  -0.3888080
   0.0190994   0.2747166   0.0009158   0.0095839  -0.2151324  -0.1618069
   0.0774642   1.0270195  -0.7187217   0.0734473  -0.0425581  -0.0724466
  -0.3642404  -1.4378349  -0.8056117  -0.1717107   0.0385004  -0.1343773
   0.9587448  -0.4688965   0.2352442   0.8931851   0.0447170  -0.2219808
  -0.3798073  -0.1241966   0.4413647  -0.3848867  -0.3297815   0.3179935
  -0.1582079   0.6136210  -0.3640862  -0.0997386   0.0161754  -0.3147505
  -0.0503322   0.0739239   0.0592721  -1.0706239   0.2763946  -0.2990986
  -1.7831544   0.3933319  -0.2869803  -0.6908748  -0.1066129  -0.1508759
  -0.0483101  -0.1938783  -0.3034495  -0.0819142   0.1137815  -0.1369148
   0.2056342  -0.2484007  -0.4725704   0.4489686  -1.6183713   0.5977998
   0.4344540  -0.1046692   0.2666741  -2.0839666   0.8527853   0.7876283
   0.0882254   0.0440329   0.0565529   0.2755181  -0.9967018  -1.1023988
   0.4518107   1.9147987  -0.2162025  -0.3299390  -0.3762626  -0.2188890
   0.3874764   0.6597968  -0.8164448  -0.0703639  -0.1291508  -0.2006817
   0.0059863  -0.0199934  -0.5249252   0.3257605  -0.0940551  -0.5888538
  -1.0582005  -0.0872880  -0.2336484  -0.1574167   0.0721323  -0.2577238
   0.3748061   1.6694826  -0.1999324  -0.3357530   0.5919425  -0.0121584
   0.2145801   0.1662310   0.0337974   0.1572801  -0.3354309   1.5272512
  -0.5973982   0.6827448  -1.5853137  -1.1243398   0.1486128  -1.5014404
  -0.1881427  -0.2390716  -0.4461876   0.1418597  -0.0774634   0.0069761
   0.1224241   0.0661038  -0.2582081  -0.0381945   0.0565821  -0.6488797
   0.3709478  -0.5737369   0.4730334   1.0772272  -1.0156747  -0.2064386
  -0.2069082  -0.3648803  -0.0457126  -0.4538396   0.1511960   0.7948070
  -0.6521264  -0.3379540  -2.4072543  -0.1435849   0.3097427   0.0080654
  -0.7828189  -0.3422685  -0.2120936  -0.4187108   0.0776838  -0.2125496
  -0.1656388   0.4565203  -0.1034588  -1.3236000  -0.8631049   0.4723878
   0.0277553   0.3071331  -0.0541223  -0.1609767   0.0773556   0.0502740
   0.1539576   0.1123705  -0.4368828   1.0155574   0.8819848  -0.9540917
  -0.3422423  -0.5670355   0.5410034   1.6846403  -0.3199333   0.5374636
  -0.0339022  -0.3351385   0.2220231  -0.1806779   1.4334136   1.2028443
  -0.2338685   0.0803077  -0.1113795   0.0262077  -0.4561364  -0.7522576
   0.4391535  -0.5962202   1.0124433  -0.4601487   0.3117620   1.5534805
  -0.0018014  -0.0848068  -0.0181041   0.4488410  -0.2056728  -1.0529728
   0.1784073  -0.5074703   0.7167632  -0.5309303  -0.2530295  -0.7578630
  -0.1674910  -0.1990432  -0.0788140   0.0102823   0.0030603  -0.0677026
   0.2460625   0.1639475   0.1940790   0.8810273   0.3618482   1.3358166
   0.8105405   0.0502576  -0.2387022   0.2052970  -0.2870156  -1.4912695
   0.4145438   0.0465854  -0.0353515   1.2735049  -0.2982270  -0.3376912
  -0.2453942  -0.3019405   0.3749583   0.2164381   0.2756018   0.6725270
   0.1568093  -0.1432020   0.1400019  -0.8558634  -0.5842918  -0.6939806
   0.1059120   0.3003124  -0.3786174  -0.4514294  -0.0791469  -0.7453044
   0.1416165   0.0319589  -0.7310895   0.3562925  -0.0464875  -0.1731475
  -0.5079215  -0.1441834   0.9170809   0.2825181  -0.3125193   0.1958846
  -0.0283921  -0.0784682   1.1777472   0.1628324  -0.1513649   0.3274683
  -0.1489997  -0.0857533  -0.0256343   0.4477092   0.0021555  -0.3099402
  -0.0249934  -1.2068300   1.5067617  -0.3192575  -0.2853423   0.2692571
  -0.8947213  -2.2740898   0.7336412  -0.1528917   0.0664585  -0.1581453
   0.5533029   0.5228136   1.1560309  -0.6560463  -0.0047965   0.2343937
   0.1369324   0.2205432   0.0665614  -0.5340894  -0.6379115  -0.6967813
  -0.1448152   0.3119910  -0.1914223   1.0432688  -0.4591003   0.2896755
   1.1326164  -0.5464456   0.8114956   0.4993907  -0.5526273   0.0008426
  -0.0581579  -0.0666898  -0.1474639   1.0445130  -0.5366122  -1.0109337
   0.2087506  -0.4650195  -0.5471795  -0.3562021  -0.5278919   0.1440565
  -0.0428182   0.1798875   0.3079439  -0.0050195  -0.0905252   0.0465778
  -0.1074192  -0.2407571  -0.1724688   0.6381403   1.0033827  -0.3452576
   0.0583709   0.0297244   0.2120762   0.3668337  -0.0304221  -0.7172163
  -0.0382287   0.1531384  -0.0047393   0.2192338  -0.1455551   0.0476502
  -0.1546154  -0.6261311   0.3252530   1.2816045  -0.2331984   0.9330492
   0.8244512   3.0263480  -0.4986127   1.8001863   0.2166766  -1.3971313
  -0.1169281   0.0334244  -0.0022350   0.9089950   0.7043181  -0.1337343
   0.1148669  -0.2163330  -0.2634909  -0.3107660   0.1061466   0.0874905
  -0.3266115   0.3702090   0.1657233  -0.2959654   1.3121250   1.2922041
   0.0206641   0.1115623   0.1434175   0.0456373   0.7437581   0.0950956
  -0.2335433   0.3736239  -0.3741318   1.1985530   0.2116851  -0.0994949
  -0.0334735  -0.7555849   0.1656479  -0.0058656   0.0470480   0.4755039
   0.0030905   0.1984052   0.2508929  -0.1280490   0.0431722  -0.1204203
   0.0661259  -0.0257679   0.1486396  -0.1901750   0.0602345  -0.0070147
   0.0453403  -0.3574697   0.4368633   0.7474665  -0.2064313   0.1018153
  -0.1055444   0.3754164   0.0982000   0.1174677   0.0023312  -0.5590318
  -0.2951364   1.2781468  -0.3750276   0.0015783  -0.2014679   0.1394392
  -0.0446659   0.0479773   0.0750057   0.3661142   0.0273669  -0.0323529
   0.8311185  -0.8704345   0.0228174   0.1025684  -0.1292766   0.1833102
  -1.2594149  -0.0766871   0.5459847  -0.0009210   0.0088363  -0.0971912
   0.0812402  -0.4115781  -0.4703342  -0.2980049   0.5236894  -0.4984379
   0.2661704   0.2165730  -0.1637379   0.3288887  -0.3003026  -0.1980570
   0.6536627  -0.2085297  -0.1700275   0.0566162   0.0886266   0.1101725
   0.1487878   0.0704531  -0.0415898  -0.2369434   0.0524476  -0.0369592
  -0.3533628   0.2579224  -0.0288024   0.0068714  -0.2974608  -0.2039290
  -0.0700865   0.0305139  -0.1313381   1.1206808  -0.9143905   0.7396579
  -0.2549766   0.2202215  -0.2277843  -0.5078311   0.8837145  -1.2095079
   0.2415992  -0.4823086   0.1576168   0.8976052  -0.3946839  -0.1257860
   1.1990781   0.1642459   0.5849856   0.0639502   0.1146069   0.1888762
   0.2964510  -0.9812299   0.6659416   0.0245175   0.1819419   0.5572523
   0.0468353   0.2647725  -0.0114966   0.2479545  -0.0992708  -0.1443772
  -0.2960336  -0.2181239  -0.2260664   0.3221155  -0.2802528  -0.1211065
   0.0044702   0.0722117  -0.2802998   0.0803307  -0.0187331   0.1627220
   0.4940528   0.0167296   0.6330233  -0.6757483   0.1611437   0.0902036
   0.3408398  -1.0018454  -0.3623193  -0.3282393   0.0414620   0.0098200
   1.5378639  -0.1408280   1.1952906   0.2573678   1.0471281   0.4110317
  -0.1540080   0.0748674  -0.1205608  -0.4941183  -0.3986242   0.6976373
  -0.3480235   0.7652120  -0.2617038   0.1882759   0.1449223   0.0985201
   0.4133827  -1.1829516   0.0049374  -1.6605150  -0.0915513   0.1779680
  -0.1998416   0.1759618   0.4866274   1.4686564   0.6382536  -1.1910162
  -0.0377158   0.0606224   0.1581918   0.0664055   0.1902380   0.2916855
  -0.4479458  -0.7959911   0.2261786  -0.4328913   0.1367477   0.4120643
  -0.2364723  -0.0322733   0.3085084  -0.7599133  -0.4118197   0.6001113
  -0.3256650  -1.5410281   1.4880589   0.1766680   0.5083080  -0.2105005
  -0.0307137  -0.1482454  -0.0365999   0.3169982  -0.0354493  -0.1688882
   0.6312563  -0.2413114   1.0874490   0.1256446  -0.0916861  -0.2172617
  -0.9032394  -1.0060639   0.3325249  -0.3684629   0.2542172  -0.2890216
  -1.1202719  -0.0531072  -0.0789247   0.0043922   0.0299736   0.0573615
  -0.1418631   0.0580064   1.2506370   1.2237394  -0.9163504   0.6782925
   0.2328976   0.4509572  -0.4054933   0.2134845   0.2525103   0.1549105
   0.5892661   0.8443842   0.3909986   0.2820332   1.1144367   1.0960218
  -0.3390101  -0.8392840   1.5445341  -0.1629356  -0.0649354  -0.2407694
   0.1870430  -0.1013333   0.0654048  -0.0156217  -0.0598413   0.0242948
   1.1542397  -1.1478869  -0.2107443   0.1289943   0.1720978  -0.0735509
   0.6544012  -0.6415087   0.0926143   0.2631724   0.1007909   0.0993122
   0.0243387   1.2313822  -1.0378140  -0.2712457   0.2185205   0.1011257
  -0.4486795  -0.7573113   1.1760666   0.1011648   0.2713022   0.0558689
   0.3617420   0.0782858   0.3054708  -0.1929045  -0.2201259  -0.4400204
   0.6153448  -0.6341235   2.3761271   0.2011999   1.3151158  -1.1108132
  -0.0184932   0.1122266  -0.1426081   0.4967213  -0.7129141   0.4363357
   0.5456643  -0.6084982  -0.1863707   0.4558974   0.4761680   0.5316460
   0.0800261  -0.1327664  -0.0547469  -0.1015159   0.0512234   0.0857022
  -0.1613278   0.0808287   0.1121457   0.4473889   0.6460027   0.3079813
  -0.0292492  -0.3325689   0.2462666   0.3157193  -0.2179430   0.8855791
   0.0386555   0.1645028   0.2393462  -0.9266057  -0.7906305   0.0571886
  -0.2534489  -0.4312915   1.4767042   0.3636240  -0.0181498   0.0382151
   0.8808062  -0.2065440  -0.0958414   0.2220685   0.2002273  -0.2983441
  -0.7639074   1.2165599   0.3184850   0.6808166   1.7333276   0.2583872
  -0.8361259  -0.0244699  -0.7360358  -0.2514670   0.2957501   0.3946428
  -1.2433869   0.6196853  -0.5125173   0.3241006   0.8389296  -1.5512577
   0.9346688   0.3006518  -0.3842538  -0.4784130  -0.2350985   0.0361472
  -0.1252152   0.2384226  -0.0871335   0.2219100   0.2291031  -0.1987000
   0.1258442  -0.1989721  -1.2829695  -0.0694528   0.0006684   0.2701433
   0.4232781   0.5293827  -0.9090181  -0.2220086   0.0910682   0.0558634
   0.6746926   0.4633232  -0.9629921  -0.7068983  -0.2187741   0.4843734
  -0.4531161   0.7385449   0.8921971  -0.2183164   0.0373966   0.0593934
  -0.0811692  -0.3564993  -0.2595943  -0.3918653  -0.3623391  -0.1501535
   0.3939221  -0.4028584   0.5703976   0.4575264   0.1380901  -0.2527112
   1.6834846  -1.0375558   0.9987235   1.0787201   0.2623389  -0.3671541
  -0.1322789  -0.1744588  -0.2580657   0.0897903  -0.0462457  -0.0038861
   0.0150860  -0.0053923   0.2772087   0.3448346  -0.3191962   0.1033041
  -0.4271146  -1.0716194  -0.9154321  -0.0420603  -0.6513866  -0.3355405
   0.0767092  -0.1078998   0.4289203  -0.6532522   2.2710304  -0.3391711
   0.3801371   0.5664124   0.4764323   0.1255407   0.1821295  -0.0630299
   2.0396747  -0.2636045   0.7489714  -0.4446054  -0.4127346  -0.0875493
   0.0305131   0.0955290  -0.5139304  -0.0599072  -0.0619664   0.0880697
  -0.1339656   0.1223247   0.1263844   0.1471105   0.2146062  -0.0379909
   0.3823080   0.3081963  -0.3161705   0.2886693   0.3062084   0.0164340
  -0.2406288  -0.0432216  -0.1011187  -0.6377003  -0.2849912  -0.7113156
   0.0322612   0.2281870   0.4753593   1.6658980   0.0436503   0.7333804
   0.2895861  -0.5719818   0.1828602  -0.0659151  -0.0437132   0.1019574
   0.3690727   0.3436539  -0.4812443   0.7696654  -0.0432867  -0.1677895
  -0.1692113  -0.0007859  -0.2793219  -0.0558395   0.3021515   0.0951117
   0.3660134  -1.3680223  -0.1263438   0.5113113   1.2339553  -0.7039898
   0.1647325  -0.5134422   0.2239197  -0.0285319   0.1386399  -0.0309511
   0.1686421  -0.1075392   0.2865872   0.0241858  -0.0601493  -0.1419396
  -0.1366271  -0.1687387  -0.1226172   0.6094039  -0.8336456   1.7076610
  -0.5619977  -1.4421046  -0.3722849   0.0400896   0.0294469  -0.1231347
   0.0233116   1.0202900  -1.3214956   0.3034800  -0.8155666   0.0083915
   0.1091854  -0.1507026   0.1422314   1.0102898   0.0162427  -0.0947280
   0.0065334  -0.3311093  -0.5147351   0.0576567  -0.0697674  -0.1140335
   1.5739627   0.3506642  -1.8160519  -0.1480577  -0.0841445   0.2407785
  -0.0582190   0.0702845  -0.2351253  -0.2939657   0.0600880   0.2629401
  -0.1963025  -0.8895240   0.9773136   0.3510506   0.0636633  -0.0772900
   1.0643041  -0.0950171   0.8741079   0.1392086   0.0246429   0.0010723
  -1.2567425   0.1567762  -1.2581203   0.0035633  -0.4519862  -0.1666679
  -0.0382304  -0.8244550   0.0217256  -0.7363655  -0.3990592   0.3945208
   0.8166870  -0.4550712  -1.4963416   0.2119033   0.1057505  -0.1811503
   0.4421989   0.8159525   0.0534275   0.8997249  -0.6171225   0.7696765
  -0.5774244   0.1583235  -0.0203648   0.3205527  -0.2756665  -0.4182568
  -0.1692855   0.0670326  -0.0094820  -0.0511373   0.0428079  -0.0568198
  -0.1270831   0.3285094  -0.2359226  -0.1289795   0.2646319  -0.0871626
   0.5757449   0.1786972   0.1645122   0.2611094   0.4505908   0.3567361
   0.1061258   0.0301673   0.2052536   0.2209030   0.1254059  -0.0387482
  -0.1114969  -0.7727182   0.2353602   0.2936024  -0.3925663  -0.8279177
   0.8533092   0.2984319  -0.5851493   0.0866026   0.0762402  -0.1001150
   0.6400436  -0.6679374  -0.0388155   0.1131878   0.0368937  -0.0978020
  -0.0893002  -0.1847098  -0.1312785   0.2034068   0.0590333   0.0391499
  -1.8380232   1.0145700  -0.9972445   0.0738514  -0.0400920   0.2100823
  -0.1206944  -0.4478777   0.6159552  -0.5833990   0.1691118  -0.2442644
   0.9675669  -0.9556097  -0.3986910   2.0877109  -0.1234439   0.4023784
  -0.1894933  -0.1412722  -0.0695632   0.0621766   0.2130544  -0.1113231
  -0.2772464  -0.1595543   0.2003444   0.9003166  -0.1102431  -0.4448361
  -0.1267606  -0.3483731   0.1372102   0.1455579   1.5289210  -0.4773498
   0.1734202  -0.3130854  -0.3101331   0.7667039   0.6863405  -1.4719513
  -0.0775860  -0.0810853  -0.0522637   0.0205566   0.2415523  -0.0019820
  -0.0904203   0.0400737   0.0803299  -0.9962436  -0.6056636   0.3864474
   0.0258298   0.0762345  -0.2761184   0.1684193   0.3191453  -1.1905221
   0.0458874   0.2045588   0.1526122  -0.5290270   1.9523332  -0.1335231
  -0.1558656   0.1140218  -0.4755276   0.2996078  -0.2036617  -0.4031455
   0.5128997  -0.7324922   0.4119845   0.3368843  -0.5054602   0.0805707
   0.0468306  -0.2788966   0.1212273  -0.0337964  -0.0086191  -0.1976722
  -0.1883660  -0.5147379   0.0987738  -0.2277384  -0.0123286  -0.1178701
  -0.0403219   1.8502750   2.2430288   0.2443598  -0.1249255   0.2172403
  -0.4175848  -0.6535418   0.6265819   0.0947934   0.1833567  -0.9609797
   0.2977294  -0.0118491   0.0043453   0.6146041   0.0332466   1.4694489
  -0.2673187   0.2224732   0.0824263   0.2017920   0.0543455  -0.0359677
  -0.1226020  -0.1027023  -0.2437117   0.2582808  -0.9429099   1.0281539
   0.0226559   0.0768929  -0.2661800   0.2994008  -0.3899367   0.2738704
  -0.3089914   0.1101897  -0.3253183  -0.4177594  -0.8856376  -0.7910352
   0.7158899   0.1891771   0.3413381   0.8088920   1.0316215  -0.4514301
   0.2000406   0.3597345   0.0433518   0.3812908   0.1746867   0.0839637
  -0.0797468   0.0126430   0.0165052  -2.2206562   0.6269665  -0.3488299
  -0.2753787  -0.0672017  -0.2427196  -0.2646583  -0.0026613   0.8567676
  -0.2673862  -0.1873038   0.0231152   0.0272598  -0.2801043  -0.8635096
   0.8419315   0.8735359   1.1496367  -0.7944582   0.7896987  -1.3645787
  -0.1027905  -0.3193503  -0.2374841   0.0175418  -0.1574052  -0.1099860
  -0.0915932  -0.0466705  -0.2079055   1.0871994  -0.3372045   0.0706470
   0.1866073  -0.1579404  -0.0522497  -0.0508516  -0.6846437  -0.2689765
  -0.2566694  -0.2087617  -0.1301182  -0.2876173   0.5841605   0.1254951
  -0.1587196   1.9526112  -0.4078784   0.1231863   0.5458800  -0.3438307
  -0.2913864  -0.6679305   0.7163258  -0.2842391  -1.0487172  -0.0283381
   0.2735634   0.1490173   0.0474541   0.1096844   0.0203570   0.0689547
   0.1678344   0.0693073  -0.3284065  -0.4151711  -0.7793237  -1.1050563
   0.1812113  -0.5608614   1.2049091  -0.1053779  -0.2235069  -0.2410725
   0.0498447   0.2376699  -0.0566878   0.2772210   0.2106803  -0.0190181
   0.2761660   0.5219129  -0.2679060  -0.0971958  -0.0651858  -0.0866263
   0.1949472   0.2262510  -0.6230894  -0.2898629   0.3997757   0.0502286
   1.0561999  -0.8753417   0.7379387  -0.6518144   0.7609995   2.0091398
   0.3096812  -0.1941744   0.1024485  -0.4213084   0.1518926  -1.7052418
   0.5645615   0.4987001   0.7702270   0.0843832   0.1803120   0.1943005
   1.2504384  -0.9037416  -0.6211746  -0.4928516  -0.1822123  -0.5231191
  -0.0117534  -0.0884781  -0.2183729   1.7686902   0.0965656  -0.4740426
   0.0161078  -0.0822648   0.1132446  -0.2306768  -0.1124887   0.1723097
   0.1961903  -1.9346239   0.8859169  -0.0528068   0.7893896  -0.6560072
   0.2291317  -0.0015254  -0.1556197  -0.2513602   0.1676639  -0.0982087
  -0.6363448   1.0235563  -0.8494251   0.4769498   0.1546217  -0.5885785
   0.0585448   0.2284960  -0.0451298  -0.0849132   0.1036014  -0.2622355
  -0.8202393   1.1602144  -0.9316426  -0.2017685  -0.1859581   0.3369389
  -1.1628522  -1.2623834   1.3882868  -0.5581156   0.4942494   0.1529639
   0.9292193   0.0194977   0.5956064  -0.4567916   0.2812465   0.7273286
  -0.0598084  -0.0892675   0.1492389  -1.0748855   1.7047521  -0.1088572
  -1.2015971  -0.0439055  -0.0181646   0.1798928   0.4934121  -0.3390040
   0.0707330  -0.6233890  -0.1351853  -0.8689603   0.2229510  -0.3873238
   0.2057650  -0.0350985   0.0703536  -1.1407952  -0.0672655   0.0285899
   0.0969208   0.2138273  -0.0541907  -0.4607892  -0.1077190   0.0612668
  -0.4969670   2.1045075  -0.3225497  -0.0002040   1.0760714  -0.9935828
  -0.2469128  -0.3341407   0.2763562  -0.5971008   0.8295715   0.0758372
  -0.4620183  -0.3740345  -0.2858928   0.0992298   0.0834649  -0.0061881
   0.1227694   0.2019510  -0.0308985   0.1587923  -0.1201622   0.1141109
   0.3522194   0.5402636  -0.8742016   0.3427732   0.1171853  -0.4253631
   1.3045963  -0.8931953   0.1689070  -0.6320558  -0.2117146   0.0157553
  -0.3275910   0.0722857   0.1222217  -0.1525831  -0.1072274   0.3065414
  -0.0399665   0.1449552  -0.0125030  -0.1392453   0.3630002  -0.1322030
   0.3538837  -0.1750925   0.3464305  -0.5854965  -0.5805192   0.8302502
   0.0383049  -0.1403210   0.2424764  -0.4267299  -0.0687041  -0.3160691
  -0.2106953   0.7452772  -0.2091263   0.0536901   0.0593506   0.2091803
   2.1208275   0.5177588   0.4749573  -0.6277001  -0.0427588   0.2388017
   0.0980701   0.0460141  -0.2615241   0.2596183  -1.1934061  -0.5147579
  -0.9240708   1.0580593  -0.5981713  -0.4541011  -0.1020826  -0.0111662
  -2.1207299  -0.7730164  -0.3005953   0.3346090  -0.1964522   0.1208115
  -0.0909222   0.1535858   0.5358599   2.0497199   0.1479602   0.7220220
  -0.1997379   1.2632201   0.9465159   0.0758794  -0.1123087  -0.0487016
   1.0357818  -0.6007893  -0.6623818  -0.5348955   0.6241015  -0.0191380
  -0.1637348  -0.0806280   0.4106811   0.0850550  -0.1435769  -0.0579150
  -0.4633931  -0.2019250  -0.1357131  -0.2677202   0.8686965   0.0723441
  -0.1031738   0.1162392  -0.0359039   0.5123557   0.8725618   0.1574778
   0.1160566  -0.3734794  -0.0372034   0.2549066   0.3278072   0.2858096
  -0.0547931  -0.1536268  -0.1922246  -1.6457248  -0.2908036  -0.2496647
  -0.3197292   0.2910107   0.5697672   0.3954087  -0.3699818  -0.3420320
   0.1369032  -0.2144535   0.0398654  -0.9987133  -2.3117680  -0.1691922
  -0.2772655   0.4612549  -0.9616648  -0.1578640  -0.3706043   0.0493890
  -1.0594244  -1.3914050  -0.7671054   0.6347018  -1.1578036  -0.9915021
  -0.6518162  -0.1455866  -0.1014049   0.4561010  -0.2487034  -0.1518750
   0.1144264  -0.0566400  -0.3153293   0.3862379  -0.3441757  -0.4002120
  -1.2345951  -0.7308228   0.2045655  -0.1487516  -0.1057134   0.3269269
  -1.6586848   0.4694967  -0.4844683   0.1050568  -1.3688812   1.4878781
   0.0731634  -0.0340728   0.5147750   0.1287812   0.2719633  -0.1354246
   0.0311023   0.3230054   0.1380034   0.2352120  -0.0702926   1.1763447
  -0.1634455  -0.0631066   0.3044970   0.2179966   0.4947982   0.5954197
   0.2184816  -0.3306662  -0.1794256   0.3439568   0.3390189  -0.6754803
  -0.1614510   1.5170496   0.8354269  -0.3984767   0.0317684   0.0313469
  -0.6183058  -0.2052789   1.3083665  -0.6710039   0.9726079   1.0339597
   0.0955316  -0.2562917  -0.0161661   0.3931885   0.6290971   0.1517605
  -1.0380527   0.8862540   0.2758301   0.2191995  -0.1670640   0.1522659
  -0.1519350   0.0980440   0.4901864   0.2838124   0.1736696   0.2005310
  -0.2320134  -0.4714798  -0.0366139  -1.3477550   0.0617695  -1.2250405
  -0.3473456  -0.1504437   0.8516936   0.2117441   0.1542307  -0.0632417
  -1.5245813   0.7128357  -0.6028429  -0.3413934   0.9622255  -1.0988904
   0.0833332   0.0714190  -0.2937172  -0.1132597  -0.1440325   0.2644035
  -0.1538235  -0.0784850   0.0440575   0.1982739  -0.7270328  -0.6049768
  -0.3709561   0.0238904   0.1086871   0.5710009   1.9212515  -0.6363873
  -0.1769654  -0.0470073  -0.2137632  -0.1811289   1.2026644   0.0416695
   0.2474532   0.2806984  -0.8337878   0.0861210  -0.1982117  -0.0605172
   0.0141513  -0.0603936  -0.0111361  -0.0679844  -0.1090261   0.1327058
  -0.1607262   0.6802803  -0.4022250  -0.2292021  -0.6494978   1.0779178
  -0.4264346  -0.3180407   0.1651571  -0.1658443   0.1810614   0.0044261
   0.0259486   0.0598248   0.1646618  -0.1830133  -0.1409170  -0.0378660
   0.2339265  -1.9898349  -0.5814910  -0.2836351   0.3561755  -0.5833293
  -0.0453729  -0.0741939   0.1212803   0.2814215   0.0807981   0.8860384
  -0.8595897   0.4040252   0.0362145  -0.2784551   0.0161231   0.0130410
  -0.6905420   0.3996891  -0.2176514   0.4389253  -0.4967098  -0.2958050
   0.1679817  -0.0063338   0.1331836  -0.0912476   0.2560555  -0.7603968
   0.2323011  -0.1213091  -0.0300955  -0.0711589   0.1794583  -0.0551687
   0.1054421   0.1066895   0.0606268   0.7061058  -0.8361308   0.4934319
  -0.3202506  -0.2275261  -0.3758734   0.2444948   0.2207743  -0.3635488
  -0.0679206   0.1015026  -0.1639944  -1.0960146   0.0090336  -0.0504718
   1.0240690  -0.2325382  -0.1035262  -0.3513775   0.1186827   0.0139104
   1.5155119   0.0772579  -0.5428312   1.5174177   0.6947953   0.7897059
  -0.4615767  -0.0258920  -0.2182328   0.4309466  -0.5285934   1.6074494
  -1.2617815  -1.1410843   1.2558352  -0.0015997   0.3620148   0.2330050
  -1.3275215  -0.5344344  -0.2923652   0.4425450  -0.3308202   0.1651739
  -0.4382224  -0.1862042  -0.1990711  -0.4445555  -0.3071138  -0.4289580
   0.0850064   0.4190649   0.2603584  -0.0338614  -0.4503175  -1.5794889
  -0.0357314  -0.0083418  -0.1557246   0.1478059   0.2110529   0.1154267
  -0.0224150   0.4051885  -0.2178053  -0.6036480   0.3391654  -0.7615924
   0.2735617   0.1774619  -0.0294154   0.3741780  -0.2038630   0.3385780
  -0.1697019  -0.1139363   0.1660690   1.6174712  -0.9722388  -0.0448762
   1.2007837  -0.4948795   0.0369357  -0.0059621   0.0446681   0.1870689
   0.4301936  -0.1524671   0.2779107   0.0693909   0.2623446  -0.1032319
   0.3873811   0.1343869  -0.8334989   0.3639052  -0.1143500   0.5227447
  -0.4812357   0.2164305  -0.1003225   0.1533591   0.1766985  -0.1160641
   0.1851822   0.1105550  -0.2432169   0.5095638  -0.4162360  -0.0583779
   0.0318195  -0.0665692  -0.2936160  -0.1744383  -0.0032188  -0.2038213
   0.3329172   0.1550510  -0.4185523  -0.4787270   1.3524116   0.3053605
   0.0702095   0.6939403  -0.0240076  -0.0185323  -0.3175578   0.1430751
   0.7831781   0.8197359  -1.4811374   0.6794883  -0.7668808   1.0842910
  -0.0597675  -0.0952515  -0.1736679  -0.1511426   0.1643200   0.3206768
   0.0535676  -0.4658088  -0.2137476   0.1157211  -0.4001558   0.0866010
   0.0575811   0.2058272  -0.2049596   0.2500331   0.4243940  -0.1800243
   0.9305827   0.1710907  -0.0616770  -0.3060107  -0.1951763   0.0995190
  -1.4418185  -0.7336789  -0.6103637  -0.2290206   0.3185541  -0.2528383
   0.5529743   0.5046932  -0.3500286  -0.2019234  -0.4200575   1.3382580
   0.4501885   0.2745470   0.3977332   0.0189041  -0.1448130   0.1589391
   0.2415807   0.2670776   0.5112757   0.3063414   0.2302568  -0.3440572
   0.0607735  -0.4867251   0.0172394   0.0919905  -0.2302030   0.6284712
  -0.0090819   0.0404588   0.0986297  -0.1661824  -0.0224865   0.3659095
  -0.4554629   0.6880480   0.1851618   0.1305651  -0.1735073   0.1342763
  -0.0825418  -0.8921890  -0.0528251  -0.2557724   0.2842918   0.1492731
   0.4995960  -0.2428743   1.0249359  -0.9936698  -0.1497710  -1.5626250
   0.1744555   0.1403002   0.4649645  -0.1063832  -0.1603465   0.4002204
  -0.0543995   0.1626895  -0.1012965  -0.2989117  -0.1787965  -0.0597830
   0.1499687  -0.5201748  -0.1077133  -0.1162733  -0.1673898  -0.3570197
   1.0022603   1.9428901  -1.1495127  -0.1916021  -0.0377777  -0.0355769
   0.1380443   0.4164436  -0.0979777   0.0809071   0.3124989   0.1480720
   0.6270341   1.1516989   0.2103267  -1.2717256  -0.3774014  -0.7096710
  -0.3677156  -0.2083060   0.0017779   0.8846674   0.1112202  -0.5072052
   1.2883395  -0.6326952   0.3083132   0.1850400  -0.1216240   0.0550337
  -0.2291428   0.0233785  -0.4014228   0.2230470   0.2131619   0.1639818
  -0.7984499   0.4974409   0.0019941   0.1976407  -0.6466405  -0.9773946
  -0.0815316   0.0707655  -0.1366382   0.0955748  -0.0858013  -0.0728872
   0.0134847   0.2380372   0.1819023   0.7733632   0.4871188   0.5299251
  -0.1048412   0.3790484  -0.3296113   0.3211295  -0.2853221  -0.3536316
   0.1671515   0.0574297  -0.4024364  -0.6958529   2.6652547  -1.0295758
   0.1691909   0.0895396   0.7868395  -0.4437760   0.0573857  -0.1550953
  -0.2498494  -0.2379318   0.0654465   0.0719652   0.7950436  -0.9270361
  -0.5184030  -0.4449920  -0.0520767   1.1474111  -0.4527163   0.3559255
   0.0999752  -0.3094308  -0.0018591  -0.0490872  -0.1250271   0.0318540
   0.8343131   0.3452313  -0.0428564  -0.2429165   0.4030823   0.0501602
   0.6143457   1.2009295   0.4873275  -0.0869049  -0.4473142   0.1675603
   0.8398660  -1.3612642  -1.0370316  -0.3919610  -0.1049413   0.0736232
   0.4806989   0.1219636  -0.0905351   0.0871813   0.1360840   0.1289310
   0.6841366   0.9192200   0.7751030   0.0388133  -0.1276546  -0.1206602
  -0.3345521  -1.8123096  -0.6985873   0.0440311   0.0832217  -0.1804876
   0.1261003  -0.8373563   0.5319218  -0.0851264  -0.1793337   0.3319626
  -0.1727933  -0.6454700  -0.1613546  -0.4548956  -0.1073286   0.1018401
  -1.0977174  -0.5976296   0.0602600   0.0211169  -0.2058917  -0.4197826
   0.0588983  -0.3957606  -0.9204067   0.2987225   1.4096759   0.4262274
  -0.2459007  -0.3424550   0.0213110   0.3227348  -0.2515222  -0.5279813
   1.6060209   1.0202508   1.3591949   0.3244862   0.7216917  -1.0740697
  -0.1606294   0.4167806  -0.4411354  -0.0325493  -0.1124613  -0.1768393
  -0.3066235  -0.2853875   0.1061408   0.5005242   0.5416113  -0.8126299
  -0.0340594   0.0283677   0.3427772  -1.6739925   1.3086004  -0.3770016
  -0.1275537  -0.1018288   0.0591153   1.7312983   0.4906738  -1.0527769
  -0.6145765   1.3931338  -0.0080427   0.2098084  -0.0780737  -0.2996159
  -0.1580137   0.2097159  -0.1162992  -0.0013661   0.5106020  -0.3651228
  -0.3481936  -0.5226355  -0.1610866  -0.7757045   0.0420785   0.4585219
  -0.0695749   0.3028960  -0.1308697  -0.0865861  -0.1424220  -0.3834712
  -0.8423463  -1.1683350  -1.1939831   0.1140410  -0.0402440   0.1170316
  -1.3482893  -0.7669266   0.0275305  -0.2279002   0.0259850   0.1995800
  -0.0613714   1.2755597  -0.0074838  -0.4538652  -0.0878231  -0.2201994
  -0.2321686   0.1265546  -0.2634122   0.1243181   0.0155876   0.1346554
  -0.1841617  -0.0540840   0.1122689  -0.4861880   0.1930842   0.1607479
  -1.2886412  -1.1075384  -0.1579060   0.0723254   0.0017064   0.4011060
   0.5883267   0.1084894   1.0964698  -0.1504638   0.3446444  -0.4355970
   0.2451531  -0.1132244   0.0939694  -0.7818259  -0.3681140   1.0288899
   0.6346075  -0.3114425   0.6398872  -0.0758427  -0.1497074   0.1562105
  -0.3317466  -0.0617561   0.3210295   1.1421760   0.8394523   0.2738269
  -0.3851461  -0.6350878   0.9027876  -0.1962562   0.4691431   0.7107898
   0.2155430  -0.2732386   0.1417933   0.0774168  -0.0944709   0.1239362
  -0.1044083   0.3182501  -0.1838545   0.1273188  -0.1736758   0.8616549
  -0.0857595  -0.6689339  -0.0399906   0.4612822  -1.1137391  -0.7620491
  -1.2498864   0.0256746  -0.1272060   0.2055777   0.3249546  -0.0200924
   0.1273996  -0.0108424   0.0295433  -0.0399714  -0.5888928   0.3040634
  -0.8388255  -0.7362146   0.7813884   0.0322409   0.2765548   0.3176047
  -0.9331725   0.3518374   1.0196525   0.0613323  -0.1636574  -0.6265505
   1.2149327   0.8771685   0.3391516  -0.9896999  -1.3308267   1.0723375
  -0.6024639   0.1865466   0.2993994   0.3905630   0.4044513   0.6694685
   1.3478471   1.5777086  -0.4926727  -0.2004402  -0.0163098  -0.0772842
  -0.2009996   0.1467055  -0.2850506   0.2815284  -0.0523967  -0.0050538
  -0.0036660  -0.2296280  -0.2708865   0.0587054  -0.3828742  -0.0156349
  -0.2176361   0.1047592   0.1835333  -0.0819407  -0.2393527   0.0324933
  -0.7661962  -0.0015881  -0.4283668  -0.3495527   0.7560812  -0.5299238
   0.2253522   0.4892916   0.2107117  -0.2510652   0.7515085  -1.5554873
   0.5699663   0.0728945   0.8435438  -0.0178791  -0.2572937   0.4152839
   1.5429347  -0.1433742  -0.6404634   0.3853229  -0.6686666  -0.4394097
  -0.2982690  -0.0507948  -0.0419231  -0.0767323   0.1104461  -1.4611633
   0.0687592   0.1451825   0.0899372   0.4956857   0.1060430  -0.0202720
   0.1258306   0.0388693  -0.1380770   0.5931573  -1.2435566   0.0886931
  -0.0914607  -0.0611155  -0.3447470   1.0946320  -0.5957434   0.6594149
   0.5361990   0.3020308  -0.1453715   0.2610816  -0.4445142  -0.7531782
   0.0390289   1.7975972   0.7437551   0.2473067   0.3679351   0.5323708
   0.6252644   0.6618716  -0.2588286   0.0586266  -0.1909961   0.2885608
   1.0853129   0.1873601   0.5304024  -0.0129634   1.7728806  -0.0438682
  -0.6787382   0.6344638  -0.0084908   0.4609328  -0.0378898   0.1215878
   0.3144925  -0.8388189  -0.3787986   0.1499686  -1.2312225   0.9821962
   0.0858464  -0.0555266  -0.1524549  -0.3682867   0.0891048   0.0912362
  -0.1765612   0.0260694  -0.1715614  -0.0654267  -0.1611261   0.0098622
   0.7516191   0.2288961  -0.2032844  -0.0609849  -0.2218377   0.1367997
   0.4040880  -0.2770555  -0.2339710   0.1795860   0.2664643  -0.2819641
   0.2897050  -0.1468827   1.3874139   0.0506805   1.1257920   0.3612746
  -0.1099160  -0.3474382   0.3396396   0.5230432  -0.6391960   0.9387000
  -0.7661999  -0.0952155   0.5555102   0.0458335   0.5617760  -0.1260999
  -0.0237587   0.0927164  -0.0976062  -0.1018080  -0.0359941   0.1599861
   0.0057391   0.0839431  -0.0507027  -0.1094660  -0.1537845  -0.0758599
   0.1171797   0.1940022  -0.2389959   0.2872666   0.3610781  -0.7810975
   0.1453944  -0.0025737   0.1933979  -0.7005235  -0.1917963  -0.7425556
   0.3185400  -0.1584662   0.3154679  -0.4151995  -0.4034531   0.2147253
   0.2828200  -0.5931394  -0.7053518   0.1387432  -0.1929210  -0.0225856
  -0.0247175  -0.1971640  -0.0927165  -0.4177155  -0.1079138  -0.2586119
  -0.5756078   0.8345163   0.3858022  -0.0150067  -0.8548808  -0.2674649
  -0.0912755  -0.1268321   0.2433426  -0.0258344   0.2220787  -0.1742525
  -0.0545236   0.1738653  -0.1718378  -0.8633332  -0.6170917  -0.9877424
   0.1315370   0.4739379  -0.1576862   0.2466298  -0.6545134   0.9041637
  -0.1490647  -0.0478919   0.5096973  -0.1705743   1.0043036  -0.4436079
  -0.6885290   0.1115864   0.0540766   0.2001771  -0.4185968   0.2422547
  -0.0187587  -0.1195256   0.1263411   0.2827514   0.3218415  -0.1528926
   0.0692528  -0.0730141  -0.2176142  -0.5360685   0.1478772  -0.2525703
  -0.2196285  -0.0707162  -0.0709717   0.3886105  -0.5454250  -0.9234702
   0.3130508  -0.0690184  -0.3770069   0.7508673   0.8493141   0.0996286
  -0.1497370  -0.2484076   0.1171662  -0.0393168  -0.0267717  -0.6881000
   0.4067789   1.7251675   0.5644709   0.2713142   0.0193749   0.1688414
   0.2072100  -0.6699169  -0.7504200  -0.1641507   0.6028547   0.4911312
  -0.0168485   0.0238852  -0.5135906   0.3297912   0.1526409   0.1102640
   0.1104699   0.0073361  -0.0739717  -0.1416569  -0.2729133   0.1402085
  -0.2319254  -0.2048138   0.0023365  -0.1315375  -0.0178848   0.0782103
  -0.5661719   0.2144208   0.5861523   0.0921392   0.4615122  -0.4776658
  -0.9627010  -0.3534137   0.4735826   0.1768364  -0.1609570  -0.1362091
   1.3617870  -0.4970843  -0.1177258   0.4571506   0.3763465   0.4248976
   0.2917437   0.0464445  -0.0068733   0.1378497   0.0135917  -0.1080587
  -0.1667433  -0.0138674  -0.1670599  -0.2416852   0.1422880  -0.1403650
   0.0875039  -0.0353874   0.0430748   0.0375971   0.1991143   0.3553194
   0.8744769   0.1919209  -0.2174134   0.0814177   0.1420058  -0.0838444
  -0.5840396  -0.3333932  -1.0725711   0.0855956   0.1677470   0.2031224
  -0.2231438  -1.0942561   0.0620512   0.0805963  -0.6705369  -0.2894079
   0.3253851  -0.1739505   0.0417515   0.7321339   0.9244245  -0.2414154
  -0.2030393   0.1211986  -0.1845302  -0.2639763  -0.3429824   0.1867699
  -0.2381948   0.3143870   0.0405957  -1.2053238  -0.5480021  -0.3149728
  -0.5919778  -0.0698334   0.1455082  -0.8265544  -0.6809581   1.1281410
  -0.1026474  -0.0654501   0.0374586  -0.6032238  -0.4758255  -1.0209878
   1.4235109  -0.9195928  -0.0792764  -1.0509903  -0.1120181  -0.2831801
   0.0103879  -0.1138096   0.0022290   0.1290686   0.2646744  -0.1358850
   0.0292273  -0.2107706   0.1497703  -1.3786092  -0.6796945   0.7403805
   0.3384706  -0.1383887  -0.1135101   0.0294212   0.3844779  -0.5805284
  -0.2781611   0.1635549   0.0193974  -0.3258126  -0.1522489  -1.6726195
   0.3191946  -0.1167511   0.8248696   0.0151190  -0.0586560   0.0969058
  -0.0063174  -0.3622149   0.1061133  -0.2205364   0.1771148   0.0877229
   0.8117463   0.4561397  -0.8349654   0.0966040   0.0987659   0.1412227
  -1.0119354  -0.4445711   0.7435150   0.1566407   0.0447703   0.5846381
   0.3532305   0.2617813   0.9758936   0.0423515   0.2062710   0.0352266
  -0.1285916   0.4886360  -0.0291215   0.3801484  -0.1313767   0.0795702
   1.6730068  -0.1713671  -0.5710189  -0.0280946   0.0217559  -0.0513986
   1.0659879  -0.4277608  -0.7751560   0.1577736  -0.3242538  -0.1476738
  -0.0549328  -0.6716375  -0.6220775  -1.3009777   0.6168039   0.7278361
  -0.0496029   0.2405455  -0.1680064   0.0359984  -0.4070207  -0.0041747
   0.3676147   0.8440562   1.5905310  -0.0892983  -0.0526798   0.1210839
   0.2766455  -0.7301064  -0.7291230   0.2430505   0.1962698  -0.0814649
   0.0435902  -0.0159890   0.0574112  -1.4798033   0.0263334  -0.0413372
   0.2297032  -0.0407347   0.2336553  -0.2217461  -0.0494662   0.1309546
   0.3078490  -0.3511285  -0.1118528  -0.7718182   0.3299700   0.5513347
   0.0251072  -0.1912624   0.1863772  -0.3408638   0.3014792  -0.4312762
  -0.0014565  -0.1555430   0.3392777   0.1857088  -0.1569700  -0.2086385
   0.3638550  -0.0497977   0.2755638  -0.0007143  -0.4807960  -0.0999535
   0.0705760  -0.3957017   1.0201055   0.1392327   0.0514810  -0.1589771
   0.3384094  -0.8194448  -1.6649078   0.1872311   0.1527180   0.2553194
   0.5189239   0.3846504   0.7563990   0.6535864   1.3491179   0.0826896
   0.6023781   0.0875701  -0.0783036  -0.5603339  -0.4496401  -0.4431206
  -0.2795881   0.4476321  -1.0077359   0.0202183  -0.5149281  -0.3336391
   0.2172228   0.0425446  -0.2920994   0.5376144   0.2954135   0.0211269
   0.2267285  -0.0995416  -0.2711515   0.1167348  -0.6595990  -1.3783051
  -0.2177869  -1.3397010  -0.1665280   0.1247577  -0.0598731  -0.0169731
   0.0273775   0.4535826  -0.8758272  -0.3528219  -1.5707774   0.1928648
   0.2794673  -0.8310373  -0.7587227   0.0924715  -0.1852647  -0.2129796
  -0.0339839   0.2721661   0.0793123  -0.0701342  -0.1412035   0.0495181
   0.3461800  -0.1818243   0.0581380   0.0610377   0.2648718  -0.3557660
  -0.1445118  -0.3073035   0.8331004  -0.1220501  -0.2275817  -0.2534543
  -1.4520278  -1.1409231   0.6530952   0.7891156  -0.0442244  -0.0038319
  -0.0625915   0.0641650  -0.4155229   0.4043011   1.4197548   0.1060574
  -0.2225307   0.2802760  -0.5687504   0.1425749   0.0920136  -0.0040648
   0.2523337  -0.1990137   0.3662315   0.0114347  -0.1068017   0.0230325
  -0.1146212   0.1172527   0.3245860  -0.1779169  -0.0942452   0.0972365
  -0.1724679   0.1500490  -0.0881231   0.8588774   1.2742267   0.7968790
  -0.1639098  -0.2140884   0.3451666  -1.1969004  -0.1192296   0.6511967
  -0.1447160   0.1729250  -0.2015100  -0.0788094  -0.4534301  -0.6546353
  -0.8478689   0.6304783   1.3183458   0.0526915   0.0982683  -0.1135194
   0.0219448  -0.1850975  -0.2388592  -0.0025879  -0.0835319  -0.2460373
  -0.1614583   0.2606176   0.2275417  -0.1578276  -1.9001115   0.0138651
   0.1217300   0.0474683   0.2319770  -1.2362529  -1.3897032   0.4504117
   0.3593208  -0.0088771  -0.1219917  -0.9780334  -1.1826553   0.7096669
   0.3091776   0.8555996  -0.5856095   0.0494693   0.2012237  -0.5241527
  -0.5080356  -0.9118268   0.2079471  -0.9495136   1.0120452  -0.6886517
  -0.0688415  -0.1327872   0.0264198  -0.2216390   0.4755057  -0.7755390
   0.1454001   0.1127872   0.0302175  -0.1609008  -0.1970168  -0.0894454
   0.0503253  -0.9591659  -0.7015498  -1.3833940  -0.3284011   0.1724373
   0.2201531  -0.1390191  -0.1080882   0.2581715  -0.6929477   0.1950976
   1.0832037   0.0858292   1.3784502  -0.0834823  -0.3786011   1.3884454
  -0.0554601  -0.2466761  -0.4835756  -0.4712645  -0.1730666   0.2617624
  -0.0518675   0.2951741  -0.0621646  -0.2183399   0.0530549   1.7552214
  -0.0325303   0.2164719  -0.0025390  -0.0753583   0.9824590  -1.1109320
  -0.1513577  -0.1764673   0.1228784  -0.4168836  -0.7671360  -0.4055244
  -1.4177824  -0.0550134   1.1582441   0.0850451   0.2887778   0.0398537
  -0.3859937   1.3161023  -0.8605620   1.0237952   0.9031871   1.9754129
  -0.3371867   0.0190322   0.2527322  -0.1727083   0.0018078   0.0710803
   0.4953733  -0.1449650   0.0160138  -1.1700752  -0.1146671   0.3845119
   0.3157476  -0.5129220   0.3353506  -0.0946458  -0.1226519   0.3021760
   0.2357347  -0.1117175  -0.2828019  -0.2016413  -0.1250110   0.1115078
  -0.2851417   0.2245918   0.4794370  -0.0141544   0.4550065  -0.0806352
   0.2020259  -0.0203302   0.1171698   0.1204868   0.2832870   0.0855498
   0.0157299  -0.8233866   2.2142964   0.6183297   0.0022311  -1.6295822
   0.1544810   0.3789417   0.1671857  -0.6404321   0.6456070   1.9065333
  -0.4778476   0.1877758  -0.2816979   1.3440409  -0.1744780  -0.6029072
   1.0207862   1.5842481   0.4949100   0.1114181  -0.8863373   0.3493211
  -0.3246049  -0.0041411   0.1973397  -0.9664936   0.3804413  -0.9891076
   0.1885300   1.0014371   0.6579950   1.0933578   0.2987311  -1.0644846
  -0.0730634  -0.2857053   0.0877097   0.0821472   0.2455218   0.2435069
  -0.0577563   0.0242474   0.2223840   0.6400897  -0.3329657   0.5005420
  -0.1771240   0.1011674  -0.0647893   1.5543257  -0.9304435   0.8943609
  -0.0245768   0.1940384  -0.1353432   0.2386442   0.9679442   1.0737784
   0.3916130   0.5001965  -1.3891822   0.2096476   0.2397515   0.2290212
   0.5596984  -0.0316974   0.4325159   0.1058737  -0.1531235  -0.1432603
  -0.6980491   0.6084328  -0.6767268  -1.3791253  -0.0582707  -0.3736182
  -0.9999101  -0.8063615   0.1158770   0.1284833  -0.0580270  -0.0044500
  -0.0858812  -0.6784141   0.7524768  -1.0539645   0.3551469   0.7100768
  -1.5611056   0.2461019   1.6917610   0.1133840   0.0366565   0.1597273
  -0.1211212  -0.0137942   0.0134578   0.2539513  -0.2264656   0.0238461
   0.6773812   1.9655161   1.1643854   0.3812601   0.1245119   0.1444827
   0.0582554   0.2623007   0.9431584   0.0512158  -0.5161991   0.4244554
   0.3729732  -0.4482696  -0.6270341   1.0357036  -0.2636314  -1.0195632
  -0.0401807   0.1583484   0.0225920   0.0711225  -0.0673409   0.0804319
  -0.0419701   0.0852580  -0.1326385   0.3454778   0.2159121   0.2734362
   0.1276588  -0.0736082   0.2206105  -0.1428837   0.2391181  -0.1655525
  -0.4495603   0.5669812   0.0014407   0.0165787   0.3930913   0.3622093
   0.6225788   0.2040292   0.0659859   0.1285473  -0.2362203   0.1310772
  -0.5448793   0.1811547   0.0950997  -0.4508131  -0.5329552   0.3270452
  -0.2051817   0.1526888   0.1324804   0.2843179  -0.5771662   0.0685038
   0.0238694   0.2866115  -0.2783851  -0.3500077   0.7933228   0.4222720
   1.0358125  -0.4937520   1.4332533  -0.4189772  -0.0384202  -0.1432113
  -0.0349740  -0.0437300  -0.1282700  -0.0755056  -0.0341814   0.4294944
   0.0605192  -0.6010370   0.7280673   0.1352073  -0.1937902  -0.0194023
  -1.2195849  -0.1530964  -0.1048041  -0.3104474   0.0911969   0.1230501
  -0.4858250  -0.1639715  -1.1799354  -0.1032236  -0.3562634  -0.1044683
  -0.3359899   0.0338431   0.3050591  -0.7205678  -0.4723740   0.1836698
   0.3128349   0.9341706   0.8636600   0.2061730  -0.1470024   0.1522555
   0.4744363   1.1650839   0.5535550   0.0173246   0.7978217   1.1801575
   0.1047086   0.0580085  -0.0106759  -0.6760487  -0.7759270  -0.3963862
  -0.8370079   0.7468535  -1.2317931   0.4337915  -0.6157772   0.8666226
   0.3770806   0.0798081  -0.1953612   0.0631769   0.1105764  -0.0696618
   0.0946271   0.2072145  -0.0823681   1.5637144  -0.5268911  -1.0943453
   0.2894333   0.3537419   0.0765571   0.5022195  -0.2505293   0.2690277
  -0.1643803   0.0826671   0.1683444  -1.3713965   0.8440102  -0.8887180
  -0.4709624   0.5839174  -0.0475174  -0.3875741   0.2469576   0.2034679
  -0.1266089  -0.3667547  -0.3369502   0.1928700  -0.2366822   0.0538900
  -0.0402111  -0.9272201  -0.2212616  -0.7065400   0.5194045  -0.5731326
   0.0208798  -0.5041668   0.4334801  -0.1080101  -0.3013252  -0.0554929
  -0.0391895  -0.3315081   0.0669818   0.3555510  -1.1032725   0.4771976
  -0.0083638  -0.4113650   0.0729572  -0.0507290   0.1218227  -0.7226481
   0.3498062  -0.2445290  -0.3775289   0.8447019   0.2320454   0.9718658
  -0.0958734  -0.0137881  -0.2568223  -0.3213349  -1.7402266   0.2364849
   0.1677660  -1.1841423   0.0434358   0.1745173   0.2110703   0.6684124
   0.0159114  -0.2448455  -0.1957748   0.0885984   0.1668597   0.3511994
  -0.1728023   0.3992574   0.3685822   0.0392467  -0.2174541   0.1977834
   0.0506492  -0.2017079   0.2668703  -0.0880127   0.1143236   0.2201730
  -0.9691549  -0.4497437   0.8082852   0.0322654   0.2807309   0.6611748
   0.1800883   0.2667747  -0.2986132   0.6632508   0.3931418  -0.2153058
   0.5384889   0.1546797  -1.3004405   0.1862992   0.1903201   0.3661399
   0.0293090   0.7347373   1.6718779  -0.2525187   0.9541182   0.4995013
   0.3899053  -0.3443649   0.0981118   0.3497386   0.3913757   0.9533070
  -0.1600586  -0.7055545   0.2919382  -0.2860904  -0.0272397  -0.0602767
   0.2937812   0.0808400   0.0713994   0.4109021  -0.7753804  -0.8388449
  -0.2488545   0.3027670  -0.2405882  -2.3389000  -0.8615023  -0.3727337
  -0.1352990   0.2193417   0.0483096  -1.0949436   0.2090969   0.0969106
  -0.8732705   0.4345597  -0.1957971  -0.1621245   0.2198462  -0.3615665
   1.4483334   1.1040281   0.7663540  -1.4675805  -0.2188018   0.3096068
  -0.2371198  -0.1312738  -0.3428371   0.3376800  -0.0532718  -0.2324797
  -0.2751562  -0.2986099   0.0751190   0.0089390   0.2399095  -0.2186757
  -0.1070101   0.1687406   0.0497646   0.2158853  -0.2309333   0.0375833
   0.4701674  -1.2950343  -0.1578341   0.0691178  -0.1178396   0.2531555
   0.9495005  -0.0644676   1.3766554  -0.6195147  -0.2535624  -1.1775510
   0.2733735  -0.1885360   0.3530726  -0.1684386  -0.2953989   0.6081815
  -0.1283524  -0.2639211  -0.0282530   0.6041665   1.6664665   1.1206577
   0.2737206   0.1647413  -0.0088574   0.4769579   0.5176558  -0.3192433
  -0.1776798   0.2093165  -0.4459673   0.3187641  -0.0133049  -0.1329891
  -0.3754938  -0.3486470   0.1070526   1.3312147  -1.1287544  -0.2421826
   1.4909697  -0.4641402  -0.7721162  -0.4746518  -1.3527087   0.2337740
   0.1856534  -0.3079064  -0.0136891  -0.3317821   0.6237389  -0.8337659
   0.8183795  -0.7752946   0.8104235   0.4616658   0.4327960   0.2586195
   0.6559662   0.2665927  -0.2276539  -0.5852246  -0.3497593   0.3195709
   0.7100894  -0.3949927  -1.4620129   0.1722855   0.0843081   0.0816235
  -0.1354346   0.2754522   0.1699161   0.0824041  -0.2391268  -0.1136707
  -0.8407779   0.2405344   0.4303731   0.0984628   0.0251196   0.1063892
   1.3579718   1.5632406  -1.2158774  -0.2927042  -0.0554356  -0.0722157
  -0.1335609   0.8132227  -0.1503990  -0.0672686   0.2998896  -0.3275556
  -0.3361623   0.0464943  -0.4069859   2.1559998  -0.3122146   0.3344773
   0.4603195  -0.2424272  -0.3383190  -0.0714621  -0.1070393   0.2730085
  -0.8154649  -0.3088802   0.3541960   1.5233823  -0.3142586   0.5637266
  -0.0694571   0.2010950   0.1662333  -0.8638558   0.1394365   0.1922292
   1.4082929  -0.2552246   1.7479304  -0.2838331  -1.5571951   0.0719252
   0.5328780  -0.0971991  -0.0230785  -0.1245470   0.1561640  -0.0033244
  -0.0050529   0.4848097  -0.0172556  -0.1602490   0.0284492   0.1830820
   0.5326341   1.5222155  -1.4357682   0.1681000   0.7627427  -0.6995481
  -0.1522919  -0.1321127   0.2789904  -0.2180990  -0.4107721  -0.7081427
  -0.8880540  -0.6009461   1.4258295   0.0472190  -0.0513258   0.0036163
  -0.6369943  -0.1557845  -0.2514783   0.8348385  -0.5123437  -0.4957969
   0.2794771  -0.0678665   0.2107753  -0.0406918  -0.1391572   0.3767304
  -0.3050638  -0.3150882  -0.0917663  -0.0023252   0.1345293   0.0025298
   0.2179012  -0.0197871   0.0680803   0.6974311   0.1702421  -0.2597491
   0.0807055   0.1465983   0.0722974  -0.3606075  -0.2370223   0.1769199
   0.2013954  -0.1984997   0.1563839   1.2726404   0.1818478   0.8574118
  -0.4872569   0.2145506   0.8518180   0.1220384   0.0791563   0.2755810
   0.0620826   0.1982979  -0.8726514  -0.0437027  -0.2673458  -0.0395494
   0.2530854   0.3841225  -0.1529878  -0.0954634  -0.2158955   0.2192642
  -0.7581883  -0.7651520   0.8445054  -0.2072047   0.1905640  -0.0256283
   0.0512601   0.0071350  -0.8178835   0.1136535  -0.0287160  -0.1733374
  -0.2057361  -1.7731669  -1.2478598   0.5035265   0.5868962   0.4340579
  -0.1425287   0.2195880   0.6259075  -0.0166690   0.3457693   0.1983169
   0.5463499  -0.7824165   0.8618292  -0.1025823   0.1472087  -0.0185608
  -0.2463185   0.0688997  -0.0646224  -0.7320804  -1.1113904  -0.2678935
   0.6458178  -0.4615919   0.6852837   0.3969861   1.1055339   0.9393872
  -0.2083858   0.3476092  -0.1432132   0.2922352  -0.0168284   0.0535572
   0.3050809   0.1831386   0.0805171   1.1943120   0.0458699   0.7442587
   0.2332716  -0.0887613  -0.1851870   0.3677236   1.1659267  -1.0675255
  -0.0124694   0.0312425  -0.6968881   0.7356144   0.2321908  -0.7374820
  -1.3691710  -0.9139565  -0.7056851  -0.3866050  -0.1742755   0.3609882
   0.1227292  -0.0750483  -0.0850955   0.1344495  -0.7508533  -0.4079902
   0.0371117  -0.0357578   0.3173129   0.7689551  -0.6224161   0.0713736
   0.1710013   0.1138767  -0.1404908  -0.8265154   0.1266050  -0.7149458
   0.0639808   0.3144396  -0.1023506  -0.5462077   0.8501547  -0.5629539
  -0.4581530   0.1333528  -0.1609545   1.0181662  -0.1176387  -0.2525864
   0.0136808   0.0628998   0.3001181   0.0166225   0.2912338  -0.0283749
   0.2490135  -0.1789382   0.0876253  -1.1558167  -0.3617212  -0.8021928
   0.0641115  -0.3265489   0.0664637   1.4080903   0.1802412  -0.3884611
  -0.1156596   0.1657027  -0.0414898   1.0202856   0.4415573  -0.5920777
   0.7844202  -0.1403407  -0.0731686   0.0880258   0.4429575   0.3082773
  -0.0641280  -0.5696265  -0.0071802  -0.5000382   0.1508417   0.0352953
  -0.3093772   0.1733737  -0.2067677   0.0353010   0.2233458  -0.0088206
  -0.3166612   0.2603752   0.3312047   0.0138027   0.2906020  -0.3627574
   0.0086388   0.2321318  -0.0164893   0.1290795  -0.0906994   0.0409406
  -0.2097169   0.0853783  -0.1464007  -0.7983403  -0.1362871   0.6695699
  -0.0664271  -0.8996324  -1.0083093   0.5637803  -0.3002148  -0.1933004
  -0.7630798  -1.2401594   0.2680674  -0.8611281  -0.8073743  -0.9001589
   0.2750609   0.3348089   0.1902277   0.5114049  -0.9078594   0.2788543
   0.7673445  -0.7374008   0.6799639   0.1326831   0.0615031  -0.0680957
  -0.2957027  -0.5575217  -1.0888948   0.0239972  -0.1921156   0.1997616
  -0.0120539  -0.3087512   0.0210875   0.3946931   0.4726483  -0.0010069
  -1.0958888   1.1425494  -0.5240309   0.0072316   0.2289778   0.1886147
   0.6686743  -0.6494209   0.4204892  -0.1141725  -0.0389997  -0.1736205
  -0.9998693   0.6614127  -1.5438462  -1.1115274  -0.1050545  -0.7875051
  -0.2307432   0.1478132  -0.1200647  -0.3126229   0.5204246   0.3850595
  -0.7093635  -0.5386093  -0.7607739  -0.0716614   0.1573854   0.6989499
   0.2466395   0.0402838   0.1141266  -0.0673682   0.2020206  -0.1963568
   0.2874929  -0.1027701   0.1539241  -0.2390785  -0.3367164  -0.2416566
  -0.1923986   0.1425278   0.2573232  -0.7264281   0.9950373  -1.3363354
   0.2473785  -0.4101836  -0.2985114  -1.1304402  -0.1082712   0.2380202
   0.1465618   0.1211826  -0.1696693   1.1867987  -0.4826858  -0.3717909
   0.4117646  -0.5603184  -1.1065648   0.3561841   0.4352404   0.4639824
  -0.3518573   0.3087426  -0.2795255  -0.3878593  -0.3382903  -1.1170205
  -0.3955997  -0.0837487   0.1393708  -1.3475454   0.0834153  -0.5561207
   0.1032154   0.2955788   1.1756352   0.0010293   0.0926939   0.2314105
   1.5117847   0.6378337   0.4238037   0.1653205   0.0176347  -0.5239404
   0.0364860   0.1241525   0.0577196  -1.0057670   0.0280499  -0.2575308
  -0.2886864   0.8317695   0.7773509  -0.0520409   0.2191346  -0.0950501
   0.1575222   1.0064984  -1.4289228   1.3667604  -1.2722656  -1.2960795
  -0.1023216  -0.0074307  -0.0446717   0.0940324   0.1068368   0.2489534
  -0.2359663  -0.1122245  -0.0199396  -1.3660525   0.8500440  -0.5693776
  -0.1037771   0.2174134  -0.2713042   0.7662671  -0.7714725   0.6645127
  -0.2829696   0.0243742  -0.1182914   0.0149127   1.0746857   1.8859901
   0.1786111   1.0003420  -0.8414642   0.3094331   0.0963209  -0.4742761
  -0.5182835   0.4783743  -0.9073960   0.3576391  -0.6926066  -0.3979292
   0.0626942   0.0852050  -0.1832603   0.0083988   0.0977377   0.1237393
   0.1598522   0.0648546  -0.0874786  -0.2283002   0.3282245  -0.3140800
   0.1302760  -0.3414521   0.2961234  -0.3297897  -0.1909495  -0.0771250
  -0.9853272  -0.3870042  -2.0171264  -0.2668111  -0.1284183  -0.2828975
  -0.9610569   0.7008006  -1.6755196  -0.0360104  -0.1737040   0.2129564
   0.6738048  -0.4978888  -0.7272742   0.6652368   1.0039824   0.6724772
  -0.1082483   0.0427609  -0.1714677   0.3276888   0.3574742   1.3482024
  -0.3385002   1.4698729  -0.4762937   0.0041317   0.0855241   0.0678623
  -0.9335223  -0.0757872  -0.3116124   0.4437093  -1.1316986  -0.3731499
  -0.0895447  -0.5315580   0.1256815  -0.1499677  -0.4254537   1.2450055
  -0.5123846  -0.4577941  -0.2032647  -0.1012939   0.0653608   0.2521849
  -0.7581544  -0.7022438   0.6238284  -0.3460277  -0.2393233   0.5842423
   0.2297810   0.3462191   0.4376103  -0.2231195   0.2204063  -0.0319717
   0.1822702  -0.2025234  -0.1517907   0.1057684   0.1101402  -0.2602561
   0.2523189   1.1966080   1.6586882  -0.0217558   0.2668708   0.0376643
  -0.8966689  -0.2933392  -0.5845101   0.0373365  -0.4262871   0.2536711
  -1.0883293   0.6942456   0.8254641  -0.3214193   0.0573142   0.3146646
   0.9048849   0.9214465  -0.2116386   0.3319335  -0.7183098   1.7334759
  -0.0020035  -0.6422022   0.9262712  -0.1076146  -0.4882026   0.2286572
  -0.0009993   0.2708120   0.0578863  -0.6311824  -0.4517583  -1.0703922
   0.7790524  -1.3460778   0.0698699  -0.2969577   0.3537994   0.1999710
   0.3390732  -0.3330598   0.1568791  -0.0852914   0.2464073   0.4063276
   0.6659345   0.0156462   0.9189000  -0.0077869  -0.3144215   0.2805374
   0.3227519   0.4447704  -1.1597087  -0.1885103  -0.0040312  -0.2117449
  -1.0073100  -1.9062349   0.1424006   0.6285292   0.7832881   2.7008712
   0.2712430  -0.0387793   0.0128929   0.0777137  -0.0164039   0.1076386
   0.0403395  -0.1502691  -0.1939366  -0.0196374  -0.1694632  -0.1186406
   0.1239072   0.4215811   0.1945315  -0.1595285  -0.0360576   0.2022555
  -1.0257861   0.5596643  -0.4373561  -0.6757790   0.0785039   0.1327758
  -0.3855908  -0.2243861   1.5631244  -0.2586472  -0.0165019   0.0619682
   1.0568460   0.7477412   0.2800952   0.0244434   0.0576834   0.5469614
  -0.0838262  -1.2306497   0.8330711  -0.1189170  -0.2367389  -0.0596018
   0.0524259   0.2461851  -0.2074599   0.0502935  -0.1023551   0.4893161
   0.0620418   0.4689945   0.6716848   0.2039889   0.2669247   0.0108637
   0.2822032   0.4773867  -0.7769556  -0.1063594  -0.1578008   0.1341826
  -1.1148169  -0.8670306  -0.7028559   0.2320425   0.0436458   0.1035439
   0.6876020   1.2210455  -1.0210610  -0.0798322  -0.6929091   0.1082572
   0.7235501   1.1804991  -0.7750767   0.1071553   0.0125685   0.4189966
  -0.7484787  -0.1614458   0.5405175   0.0699879   0.4450182  -1.0682899
   0.0147035   0.3471210  -0.0543098   0.5552155  -0.1766035   1.1133574
  -0.9983237  -0.2657784   0.0066343   0.7671951  -0.0788229   0.2439639
  -0.3808756  -0.0889688  -0.2018580  -0.0541892  -0.0889684  -0.2401033
   0.1229288   0.0181999   0.1534768  -0.3605351  -0.3067971   2.0407501
  -0.6579658  -0.0543746   0.0248710  -0.0625446   0.4677210   0.8553924
  -0.0336540  -0.4862063  -0.0231252  -0.5633856   0.3991726  -1.5643487
   0.7542092  -0.7353061   0.7346842  -0.2024282  -0.1384925  -0.1730267
  -0.0800668   0.2013662   0.0520285  -0.2754849   0.3162122   0.0916361
   0.4676238   0.2780126   0.2680547  -0.5103150   0.0248298  -0.2978373
  -0.2196023   0.1072652  -0.1917491  -0.6181920   2.2637323  -0.5950708
  -0.0530339   0.0345028  -0.2430895   0.2080044   1.1003586   0.2303346
  -1.0741666   0.2446261   1.1469818   0.0625438  -0.1098184  -0.2044028
   0.0494862   0.1756406  -0.1787084  -0.1611764  -0.2185316   0.0506518
  -0.2539714  -0.2598804   0.2227641  -0.0958235  -0.2419704   0.3711577
  -0.1458682  -2.2278495  -1.8753605  -0.0529031  -0.1399324  -0.2036326
  -0.2821949  -0.4812162   0.2012295   1.3428955  -0.1906104   1.4075189
  -0.1963014   0.0248139   0.1969601  -1.3812850   0.7171775   0.5015291
  -1.5356500   0.3532468  -1.1895546   0.3370954   0.1411793  -0.1386790
   0.1746557   0.0952753  -0.2547235  -0.0297716  -0.2979401  -0.2701256
  -0.2194020  -0.0775103   0.3866136  -0.2887538  -0.0585007   0.3923792
   0.2322792  -0.1073310  -0.1172127   0.3973061  -0.4842302  -0.2782377
  -0.1390552   0.1341734  -0.4140130  -0.3936655  -0.0149847  -0.2464953
   0.2292783  -0.1534667  -0.1811552   1.2661505   0.7633225   0.1754632
   0.4391800   1.0659120  -0.7568585  -0.2580583  -0.2327523  -0.3190433
   0.2948736   0.2495345  -0.0466418   0.9587799  -0.3052228   1.4510507
  -0.1374413  -0.0494643   0.2929190  -1.3638857  -0.4481445   2.1268415
  -0.2717462  -0.0603798   0.1284570   0.2664052   0.3109784  -0.1279403
   1.1433322  -0.2202886  -0.5711540   0.4387857   0.0040838  -0.0253016
  -0.9268690   0.5190341  -0.4603738   0.0263949  -0.1372734  -0.0440292
   0.8686202   0.8968171  -0.1400701   0.2525284   0.1027764  -0.2751119
   0.0189247   0.1708266  -0.1317293  -0.1456206   0.2083700  -0.3038234
   0.1352887  -0.2472785   0.1090067  -0.0137879  -0.1716412  -0.1782169
   0.3938396   0.2683606  -0.0370087  -0.0383940   0.1931172  -0.0083056
  -0.2318209  -0.6763760  -0.4521964   0.6711350   0.1051764   0.2698052
  -0.3837860  -0.3015011   0.0367008   0.7675352  -0.4459915  -0.8999985
   0.5674760   0.2702564  -1.7863948  -0.1540491  -0.1022655  -0.0699765
  -1.5851474   0.3482537   0.4574436  -0.6523437   0.2683862   0.1121628
   0.0043924   0.2740100  -0.2576556  -1.7606252   0.1060554   0.9649038
   0.1877372  -0.3694917   0.2898873  -0.0229958  -0.0458040  -0.2650749
   1.1039673  -1.6228905   0.1079685  -0.1306300   0.6648581   0.1424434
  -0.1311838   0.2248284  -0.1503850  -0.3979132  -0.9064274  -0.3958756
  -0.4375683  -0.1119225   0.7772556  -0.0124909  -0.0620497  -0.4028296
   0.1649538  -0.2602761   0.3250378  -0.0810752  -0.0069197  -0.0312977
  -0.7121841   0.0912453   0.4833946  -0.2382803   0.2948550  -0.4018603
  -0.4028710  -0.8749971  -0.5953824   0.1623663   0.1831976  -0.1115595
   1.1447372  -0.8765104  -0.8169573  -1.0606917   0.4240383  -0.6386576
  -0.1499533   0.2709357   0.1661469   0.4869426  -0.4727073   0.5938070
   0.4794571  -0.1852528  -0.3932583  -0.2822869   0.8200677  -0.0177657
  -0.2645501   1.0512556   0.7028547  -0.6001414   0.4807708  -0.1334587
  -0.4785325  -0.2420882   0.1222115   0.0047117   0.2652456  -0.1028694
   0.0524640   0.2698319  -0.5880438   0.9470750   0.7310511   0.6296846
   0.1257999   0.1938201   0.0016454   0.0168711   0.0853994  -0.0118465
   0.0276829  -0.6872505   0.3751857  -0.2395871   0.4244019   0.1850257
  -0.1197534   0.2430025   0.0414597  -1.2847670  -1.7830782  -0.0248012
  -0.1077997   0.2436021   0.0679247  -0.9706112   1.1538025  -0.6500936
   0.1556264  -0.1208861   1.2327713   0.1627290  -0.2818033  -0.0022284
  -0.3228932   0.3128377   0.4371056  -1.4532000  -0.2935890  -0.7607801
  -0.1737996   0.0361851  -0.2337920   0.0865862  -0.1526627   0.2011059
   1.1309638  -1.2747104  -0.1732453   0.1205970   0.3561582  -0.1880757
   0.2887724  -0.7370006  -1.6146514  -0.1416692  -0.4120158  -0.3653628
  -0.1246952   0.3738983   0.0650666  -0.2520378   0.6408286  -0.9038079
   0.7508215  -1.1229904  -0.9749419  -0.0865834   0.1213684   0.3651273
  -0.2653245   0.1081930  -0.4906974  -0.2207452  -0.1084459  -0.2001461
   0.1694874  -0.1434438   0.2663286  -0.1279813  -0.0175904   0.1999037
   0.2080030   0.1143081  -0.2753422  -0.0105793  -1.1552699   1.2667804
   0.1521960   0.4070332  -0.0265379   0.2189501   0.9145612   1.1141614
   0.6622461   0.1499021  -0.1475055  -0.2380463  -0.0648329   0.0951216
  -0.3187425   0.4264845  -0.0905309  -0.0239370  -0.0824434   0.0660036
   0.0778394  -0.7097155  -1.3119094   0.0634805   0.3586574   0.2765503
  -0.7809407  -0.9063394   0.0485728  -0.0042210  -0.1613131   0.0516738
   0.3167142   0.2168074   0.0352786  -0.5550719  -0.0025951  -0.8895071
  -0.0048609  -0.1466054  -0.1173401   0.7905848  -0.6240873  -0.9435875
   0.0374279  -0.1523165  -0.4523272   0.0345071   0.1303803   0.0333585
  -0.0835956   0.0542173   0.1212268   0.2062634   0.1017424   0.0266192
   0.5602472   0.1770916  -0.0008210   0.1024593  -0.1071851  -0.1372473
   0.2473580  -0.2806764  -0.0188898   0.9802411  -0.3329636  -0.3363305
  -0.1718340   0.5267761  -0.4569082   0.1225859  -1.1665360  -0.0682481
  -0.2640269   0.0813424  -0.0937060   0.1308658  -0.3170786   0.3288355
  -0.3593569  -1.1814952   0.1503257   0.3068103  -1.2408603  -0.9598811
   0.0843726   0.1395879  -0.0475857  -0.1116394  -0.4039386   0.0756110
  -0.0207131  -0.2231174  -0.0026391  -0.1361836  -0.1481054  -0.7761100
   0.2575276   0.1635344   0.2325230   0.7779773   0.5259469  -0.5402733
   0.2073385  -0.1250803  -0.1299243  -1.3339493   0.2159872   0.5520811
  -0.7463239   0.2864016  -0.2793251  -0.0148683  -0.1999717   0.1661442
   0.3831541  -0.1481523  -0.1576914   0.7185713  -1.2122748  -1.2735890
  -0.2109387   0.1274691   0.3012798   0.8487837   1.3320588   0.9449551
   0.3123325   0.0413961   0.3096190   0.1103827  -0.5712187  -0.1668588
  -0.3978645   0.6299845   0.9602067  -0.0882796  -0.0866591   0.4558695
   0.4675510  -0.1659280   0.3369748  -0.3600831   1.7057855  -0.9646056
  -0.5443219  -0.1717798  -0.1029863   0.4054192   0.2415376  -0.0536667
  -0.4974874  -0.2943721  -0.2206874   0.7087247   0.0279092   0.8501721
   0.0934554  -0.2935425  -0.4308651   0.1776150   0.2997876  -0.2025252
   0.4569780   0.2666549   0.2356379  -1.0940231   0.0679752   0.7039836
  -0.2392996  -0.0072899   0.4607172   0.2606332  -1.4965598   0.2677730
  -0.2720203  -0.1468265   0.0735776  -0.2047918   0.5502948  -0.0923059
   0.1463884  -0.0813226   0.0460039   0.1657877   1.6309763  -0.1171102
  -0.7556208  -0.3150760   1.2707444   0.2848211  -0.0789620  -0.6747338
   0.0441552   0.0676398   0.1575774  -1.6427642   0.2078768   0.8332111
   0.1775007  -0.3371411   0.2776488  -0.1037087   0.1763103  -0.1604841
   0.1874656   0.1954552  -0.1231516  -0.3017926  -0.6963247   0.4631392
  -0.2839884  -0.0292688   0.2901863  -0.9653028  -0.0588227  -1.3271527
  -0.0373916  -0.3197195   0.1291999   1.0035802   1.4172564   0.4201769
  -0.2013246   0.1947286   0.0118692   0.1190584  -0.5809674   0.8346689
  -0.1963746   0.2405655   0.2062683   0.4262337  -1.4180447   0.3177918
  -0.0004543  -0.1577541   0.0265827  -0.2923430   0.3963803  -1.1488647
  -0.2896878   0.2480300  -0.1430650  -0.3626562   0.0007418  -0.2016126
   0.2230321  -0.1109835   0.0146745  -0.7853272  -0.4442408  -0.8210102
   0.0875522   0.1211575   0.0312498  -0.1926188   0.3570186   0.2538986
   0.1692076  -0.1176269   0.2535611   0.9264713   0.1171177   0.3169228
   0.4482271  -0.3906154  -0.6183740   0.1113166   0.2636943   0.0405441
   0.1353042   0.5586581  -0.0973535  -0.3701791  -0.7392624  -0.9064757
   0.2251480  -0.0896349  -0.1022357   0.6304490   1.3198749   0.3659505
  -0.2783008  -0.0324593   0.2687148  -0.8793860   1.1256137  -1.0304001
  -0.3662708  -0.1448654  -0.1153974   0.5393049  -0.1925567   0.5472383
  -0.0591157   0.0328358   0.0802121   0.1164892   0.7778420   0.1024399
   0.3208073  -0.0428244   0.0614846  -0.2596303  -0.1811827  -0.0143956
  -0.1181925  -0.1246863  -0.1610703  -0.3837227   0.9214887   0.5745957
  -0.1285517  -0.5262102   0.0880274  -0.4477817   0.4783953  -0.1109238
   0.0981748   0.1052014  -0.0170041  -0.0332124   1.1128158   0.6905122
   0.0516818   0.5376158   0.1169487   0.8695898   0.7355151  -0.2193026
  -0.4858887   0.5576868  -0.6440406  -0.5323183   0.0661501   0.5843778
   0.6403437  -0.2010627  -0.1764789   0.5357316   0.0422812   0.0227713
   0.2240190  -0.1668082   0.2170428   0.4394305  -0.0856174  -0.0000931
   0.2309222  -0.2207064  -0.5197023  -0.0445775  -0.0489254  -0.1553138
   0.0276983   0.1891635  -0.1825283   0.5000252   0.9090535   0.0349196
  -0.4733140  -0.1750002   0.0557779   1.5446242   0.1584098   0.1330524
  -0.0814929  -0.2714024   0.0121162   0.3036647   0.2057525   0.7664675
  -0.7348437  -0.5805277   0.1501474  -0.2566010  -0.0359980   0.0186881
   0.1675968  -0.2887186   0.0424109   0.1791377   0.1884714   0.2904645
   0.0938693  -0.1701198   0.1537337   0.0497328  -0.4892210  -0.0053978
  -0.5089940   0.0024370   0.1736857  -0.2497498   2.3869277  -0.0857072
  -0.0622771  -0.0838718   0.2686302   1.3057175  -0.2609670   0.0518358
   0.0326060   0.0037738   0.2980114   0.0188474   0.7977569   0.4957278
  -0.6680454  -0.0572611  -0.4437552   0.0080755   0.0384043   0.0414785
   1.3705055  -0.1423761  -1.3192138  -0.3665856  -0.2986397   0.3019220
   0.3797915  -0.0181832  -0.7998863  -1.6966213   0.0805738  -0.1367998
   0.0432656   0.6182969   0.9274852  -0.0882200  -0.0844910  -0.0317844
  -0.4772832   0.0396735   0.6117913  -0.2339495  -0.5959968   0.5279051
  -1.1969045   0.0591438  -1.5625806  -0.2118257   0.2390835   0.0480520
   0.2302169   0.1190807  -0.0722048   0.1899933   0.0470647  -0.1653381
   0.2267461  -0.4494216   0.4669191   0.3691336   0.1512895  -0.4882255
   1.1823199   0.0023577   0.2287099   0.3869591   0.4047638  -0.1665082
  -1.6960226   0.2537385  -0.1155724   0.5076368  -0.5063296  -0.2923286
   0.0764308   0.0933894   0.0434818   0.4709927   0.8636233   1.0492009
   0.5720490  -1.4877595   0.7563266   0.0070867  -0.0857611  -0.0606736
   0.4520017  -0.2447940   0.2330900  -0.5785617  -0.7118254   0.4103997
   0.0716820   1.1183001   1.1966318   0.0720502  -1.6402869   0.4237836
  -0.2736776   0.0649674   0.2040863   0.3336484  -0.3380038  -0.1316944
  -0.1927981   0.0259249   0.1133595   0.7323037   0.3434382  -0.0863489
  -0.1171080   0.3113890   0.0271396   0.0342847   0.6384393   1.0566273
   0.3862453   0.2281849  -0.2441879  -0.3061462   0.0962959  -0.5906968
  -0.0562048  -0.7683639   0.0485357   0.0783661   0.0295013  -0.0904675
  -0.5003840   0.3659716   0.3151946  -0.3387642  -0.6308789  -0.4793194
   0.0123556  -0.1593240  -0.2788387   0.0334481  -1.3377606  -0.7221854
  -0.5183091   0.2129794   0.0985356  -0.3160673   0.2236516  -0.0684593
   0.1291888  -0.2032397   0.7115037   0.0861885  -0.0296319   0.0058280
  -0.0334620  -0.0961945  -0.0868700   0.1449874   0.0343172   1.7473411
  -0.5597994   0.4980375   0.1964792  -0.2116206  -0.2861173  -0.0509506
   0.4045797  -2.6645167  -0.5251521   0.3252780  -0.1922025  -0.7658499
  -0.0918645   0.1812856   0.4010263   0.2674183   0.0543705  -0.0378510
  -0.3046151  -0.1015945  -0.3241041   1.1538807   0.1070514  -0.3056543
   0.2292000   0.2974162   0.1089747  -0.2447999  -1.5912936   0.1020874
   0.0588790  -0.0535246   0.0663627  -0.0002691   1.3792694   2.2822402
   1.3344921   0.8351881   0.1500336  -0.0646134   0.1167144   0.2740884
   0.0286210  -0.7798561   0.7841063  -0.9764770   1.0860342  -0.3034151
  -0.0359297   0.0501530   0.0474230   0.5202673   1.0825256  -0.8700808
   1.1547486   0.3805828  -1.6386686  -0.1271616  -0.3239473  -0.1090030
  -0.1589521  -0.8195896  -2.0159467  -0.2041475   0.0008868  -0.0953312
   0.0388347   0.1318220  -0.2877541  -0.7532925   1.2574338   1.0789864
   1.3176227   1.8698990   0.3012240  -0.2282626  -0.0827005  -0.1438331
  -1.9795315   1.3591192   0.3882190  -0.5624062  -0.4040335   0.0241417
  -0.0078026   0.1995481  -0.2765032  -0.2274480  -0.1402293   0.0064909
   0.0417350  -0.1288354  -0.0717789  -0.9251649  -1.3851375   0.2379085
   0.0209083   0.2062440  -0.1755207  -0.7358270   0.4683273   1.1085632
   0.9718673   0.6177292  -0.7350339  -0.1932649   0.1607426  -0.2089421
  -0.0970586  -0.1775754   0.3203940   0.1399549  -0.0037799   0.3874580
  -0.9947819   0.1918622  -0.0101852   0.1988914   0.2651373   0.4787683
  -0.7665556   0.0890716  -0.0848473   0.0257060  -0.2540427   0.3438816
  -0.3989356   0.3054213   1.0499251  -1.4688762  -0.1781992   0.8314200
  -0.1680642   0.0471428   0.4643172  -0.3039652   0.0037288   0.0664851
  -0.1190713  -0.1335475   0.1131310  -0.0122910  -0.0134383   0.0485271
  -0.0630368   0.0069557  -0.1307046   0.1579718  -0.1336255   0.2157762
   1.1926401   0.5212768  -0.5359997  -0.0821503  -0.2031069  -0.1342129
  -0.0734614   0.2173171   0.6695606   0.2610050  -0.1001370   0.1413968
  -0.4742503  -0.6591239  -1.3550624   0.6475822  -0.0168883  -0.1198105
  -0.2426424  -0.1083345   0.0932013  -0.4947884  -0.2315081   0.0328414
  -0.0004209  -0.0941858   0.0844745  -1.1098093  -1.4116649   0.1014196
   1.2868880  -0.7547494   0.8903992  -0.2327109   1.5681868   0.3902081
   0.1292293   0.0738521  -0.2295161   0.6389785  -0.4997517   0.4481509
   1.2132569   1.3969458   0.0079982   0.5790159   0.7225369   0.6355117
   0.3631687   0.0424256  -0.2039777   0.2042980   0.2976860   0.2827194
   0.1963069  -0.1323514   0.0485865   0.0799780   0.1389933   0.1841923
   1.1645441  -0.2260860  -0.6744157   0.2634457  -0.2216616  -0.8546020
  -0.0103137   0.0653687   0.1764957   0.1252688  -0.6011181  -1.0896481
   0.4241788  -0.2116316  -1.2388948  -0.1220857  -0.0371831  -0.2834909
  -0.0564564  -1.1998281  -1.1288281   0.9467656   0.5367927  -1.4179422
  -0.1572431  -0.0021025   0.2521171  -1.1206492   0.4346364  -0.8989671
   0.1331295   0.2155478   0.1242844   0.1077632  -0.0504455   0.0091058
  -0.1264732   0.2992315  -0.0793394   0.5116172  -0.0552749  -0.0521114
  -0.2525263  -0.4058907   0.1242898  -0.2496483   0.8056621   0.0017055
   0.0060966   0.0569815   0.3245838   1.1950211  -0.6394794  -1.1759307
  -0.0299177   0.4321648   0.0448955   0.8209229   1.9850697  -0.6807983
  -0.7332682  -1.6629210   0.6452526  -1.6359706   0.9558219  -1.3341270
   0.2873125  -0.1119147   0.3601392   0.1618110  -1.0301865  -0.2308670
  -0.7453765   0.3745432   0.1120979   0.9531294   0.1107090  -0.2274872
  -0.0909278  -0.3797750   0.2528960   0.1830454   0.2001989  -0.0491347
   0.1901567   0.1560551   0.1136733   0.1162593   0.1637400   0.2650048
   0.2036170   0.1224529   0.0360611   0.1718443   0.2084163  -1.1789801
  -0.0829972  -0.2451039   0.0701066  -0.5423225  -1.4321615   0.4056357
   1.0226636  -0.3882270  -0.4024919  -0.1818108   0.3294930   0.4596461
  -0.2111895  -0.4858531  -0.1914014  -0.1647214   0.0576605  -1.3815607
  -0.1952726  -0.2489663   0.2488227   0.6119652   0.5507527  -0.4002875
  -0.0797777  -0.2016562   0.2285448   0.0122421   0.1246213   0.2599213
  -0.3685151  -0.2259362   1.0864988   0.1208382  -0.2312529  -0.1139535
  -0.1590911  -0.3108214  -0.4517755  -0.1089917   0.1036822   0.4698424
  -0.7990364  -0.1411241   0.6002342   0.0602877  -0.3068345   0.2400970
   0.1435962  -0.1077123   1.2315938  -0.4495309   0.3021713  -0.1940597
   0.1743286  -0.1843952  -0.1896861   0.1914484  -0.0394315  -0.0496757
   0.1630610   0.0610962  -0.0156629  -0.8968111   0.7909425  -0.4184882
  -0.0944914   0.1765586  -0.0696610   1.2482759  -0.6730400  -0.0431308
  -0.0645850  -0.2061229  -0.2246053  -0.0437577  -0.1364399  -0.2097787
   0.6406795  -0.4073802   0.2986708   0.1902657  -0.0374794   0.0817559
   1.0004078  -0.3998878   0.7331498  -0.1659427   0.1853090   0.5388311
   0.5134564  -0.9869415  -0.6022876   1.2484055   0.4342394   0.4556943
  -0.5947339   0.0500512   0.5250430  -0.0205237   0.5194810   0.1516184
   0.6406735   0.8471799  -1.5168361   0.3888309   0.0513623   1.2038862
  -1.1672398  -1.2006046   0.4338824   0.1343642  -0.0111819  -0.4524574
   0.1334331   0.0441122  -0.0537692  -0.1268660   0.1468793  -0.1131081
  -0.5350555   0.2844571  -0.4585549   0.0150521  -0.2060632  -0.1224972
   1.5912820  -0.5913719  -0.8748378   0.2149614  -0.1264497  -0.1931762
   0.7611473  -1.1980788   0.2463365  -0.2598771  -0.9354115   0.8201738
   0.9053038  -0.8990160  -0.2602256  -0.1632548  -0.2334470   0.2424371
  -0.4390310  -0.3398414   0.1633401   0.0329223   0.1883571   0.1846357
   0.3742645  -1.2459147   0.0053220  -0.0476720  -0.1425983  -0.0356559
   0.0508613   1.0083684   0.4846333  -0.2824927  -0.1946281  -0.1135569
   0.4404433  -0.1147278  -0.2189398  -0.0168791  -0.0616791  -1.2164687
  -0.2594873  -0.0415835   0.2173623  -0.2541545  -0.3841787   0.0798903
   0.1863351   0.1955546  -1.0695585   0.2758222   0.0089623   0.1890217
   1.7401225  -0.2457860   0.3720033   0.1868580  -0.1441313  -0.0034593
  -0.0631504  -0.0352007   0.0944443  -0.9068079  -1.0061678  -0.4159160
  -0.4041508   0.4009529   0.0550410  -0.6100891   0.3732751   0.5547147
  -0.0083669   0.0972550   0.0712263  -0.5206685   0.0412990   0.5164794
  -0.3683696   0.1812953   0.4084855  -0.2764868   0.0114584   0.3260592
   0.2072478  -0.0686239  -0.2523097  -0.5981172  -0.1706880  -0.4525976
  -0.2532027   0.1226372  -0.1074004   1.7977938   1.3955409  -0.7697272
  -0.4959223   0.1764390   0.1103213  -0.3022858  -1.1881318  -0.6461056
  -0.0071460  -0.4974466   1.1115410  -0.0404558  -0.1496073   0.3067060
  -0.3938795  -0.5802696  -1.0488899  -0.4251093   0.9023860   0.2630304
  -0.1561450  -0.1184087   0.2326962   0.0882933  -0.2618360   1.4148760
   0.5922303  -0.8767092  -0.0182571   0.6830559   0.2753663   0.1321920
  -0.0985770   0.3440007  -1.4515969  -0.1289067  -0.0455256   0.1284020
   0.0983798   0.0463247  -0.0067128  -0.8092113  -0.2184340   0.9760026
  -1.2742001   0.6624378  -0.5612219  -0.2962337   0.3058695  -0.0992980
   1.4413226   0.0612599  -1.2585458  -1.5035983   0.3753196  -1.7613647
  -0.0494993  -0.1463178   0.0284955   0.0434285   0.1705713  -0.2758074
   0.3633625  -0.1148955   0.0029074  -1.0812076   0.4638270  -0.6565873
  -0.4574007  -0.0674876  -0.2426018   0.6237964   1.3906203  -0.3249466
   0.2494248  -0.0887097  -0.0544317   0.3792506  -0.2298694  -0.4670569
  -0.1073744  -0.1438696   0.4030817  -0.4231112  -0.5335046  -0.1431455
  -0.8439531   0.6013116   0.0077867  -0.3979838  -1.3733034   0.4107470
  -0.1294864  -0.3933969  -0.0754199   1.5171008  -0.8685599  -0.0349068
  -0.4402958   1.2513863  -0.1517816   0.7626195  -1.0565547   1.2390236
   0.1501726  -0.1582533   0.1894993  -0.0420971   0.1135938  -0.1544191
  -0.0195008  -0.2941861   0.0968928  -0.3493593   0.9444583   0.0359666
  -0.0026484  -0.1467711  -0.3020729  -0.9117861   0.0581348   0.4150155
  -0.4392721  -0.0090980  -0.1326513  -0.1805272   0.4253002  -0.7628909
   1.0895684   0.3407133  -0.7620985  -0.2513141  -0.6852245  -0.1273905
   0.2589280  -0.1647077  -0.1846200   0.0436741  -0.0483429   0.0278756
   0.2419202  -0.0795868  -0.1394043   0.6656904   0.3170376   1.1586977
   0.0083965   0.0650225  -0.0780454  -0.9415570   1.2605842  -0.1250796
   0.3023971  -0.0621605  -0.1528306   0.7815034   0.0837692  -0.4014362
  -0.4650580  -0.2615695  -0.5192550   1.1908730   1.3097897  -0.1880202
  -0.1863407   0.5970513   0.3338090   0.0528868   0.1751837   0.3703705
   0.0135930  -0.3865397  -0.0807166  -0.0596440  -0.4586379   1.7427169
  -0.2689537  -0.0658010  -0.4995769   1.3379283   1.0275534   0.0646413
   0.3698248   0.2358742   0.1300184  -0.5905219  -0.6217121  -1.1419034
  -0.9368720   0.2854794  -1.1385749  -0.1014963  -0.0256117   0.0812538
  -0.7206986   0.2118615   0.7646579   0.1686694  -0.3027139   1.0468294
  -0.0263306   0.0634645   0.2118681  -0.0513715   0.3320065   0.2493278
  -0.1456852   0.1634460  -0.0416614  -0.0258725   0.1029880  -0.0645950
  -0.0178147   0.0150267  -0.0627343  -0.2060431   0.0953244  -0.0023734
   0.0007183   0.6833490  -0.4084266  -0.1848733  -0.0634598   0.0177144
   0.4840643   0.7305535  -0.6410370   0.2457392  -0.9409488   0.1671691
  -0.2790238  -0.0274454  -0.0370910   0.2920096   0.0316581   0.0312656
  -0.1225984  -0.0325883  -0.0482990  -0.3755168  -0.4893999  -0.6363199
  -0.2275893   0.1439110   0.3320803  -0.1242557   0.4335716  -0.3935385
   0.2348683   0.2614216  -0.2916155   0.8075475   1.3414171   0.0011289
  -0.2413327   0.1037769  -0.1532714   0.5696871  -0.0503147   0.7175111
  -0.1823146   0.6684483  -0.6449506   0.6809318   0.2517936   0.3687664
  -0.0708897  -0.1012903  -0.1964075   0.0629525  -1.5043463  -0.5997132
   0.6840149   0.5096946   0.5500030   0.1040066  -0.0467789   0.2354236
  -0.3589325   0.6272531   0.7501960  -0.0200186  -2.4426710   0.5432247
   0.1370810   0.8149626  -0.3337256  -0.6635657  -0.1149101  -0.2026497
   0.0561841  -0.0212510   0.4611790   0.0252565   0.3578605   0.1126323
   0.0913602  -0.5966745  -0.1830906   0.1220964   0.2526626   0.3623851
   1.4971297  -2.0638325   0.7354044   0.0853584  -0.0862319   0.1081348
  -0.0928601   0.5640760   1.0247656  -0.3767290  -0.0688580   0.5777132
  -0.0295715   0.0238424  -0.0593848  -0.2567052   0.0290865   0.0316122
  -0.0154547  -0.0761110   0.2434949   0.6329844  -0.4258442   0.4353676
   0.8743413  -0.6983361  -0.8621958  -0.3446861  -0.0890943   0.0357116
   0.4623852   0.2922147   0.1394211   0.0830323  -0.1038027  -0.1759730
   1.1239642   0.5591994  -1.2292048   0.2391479   0.2461390  -0.2068943
   0.1096558  -0.3295141  -0.7183554   0.4481709  -0.0950112  -0.1227159
   0.5045616  -1.0954294  -1.2493129  -0.3132922   0.9186159   0.1263771
  -0.1658458  -0.3381334  -0.1052512   0.3582907  -0.5101675   0.0951072
   0.0535255  -0.8897590  -0.9720887  -0.0871389   0.4287130   0.1935154
  -1.5526562   0.5499552   0.3519494  -0.0900898  -0.4015618   0.2312884
  -0.1628843   0.0038219   0.0699327   0.6329885   0.6189849  -0.9414947
   0.0793311  -0.3705141   0.2118099  -0.0739395  -0.7487329   0.0156463
   0.3930221   0.1800795   0.4011390  -0.5872257  -0.5960369   0.6452709
  -0.1904919  -0.1263026  -0.3239829  -0.3309626  -0.2765664   0.0131658
  -0.2045816  -0.2543810   0.1430529  -1.2445901  -1.0749333  -0.0947847
   0.1316636   0.2544562  -0.0697021   1.7062956   1.3535462  -0.1256538
  -0.1858798  -0.0689879   0.3476128   0.0987962  -0.2163035  -0.2622513
   1.5764989  -0.7228349   1.2485268   0.2191600   0.8058442  -0.1372097
  -0.2089237   0.2122863   0.4546992   0.0705561   0.0319430  -0.3521736
   0.2724011   0.0675556  -0.0483032  -0.2260059  -0.7070465   0.3512574
   0.3603075  -0.3353348  -0.2596966   0.1003302   0.2578454   0.4653911
   0.0790721  -0.3166274   0.0428692  -1.5475750  -0.1530268   1.5500010
  -0.3614542   0.6737375  -0.5740636   0.0386314   0.0929749  -0.0833654
  -0.1775741  -0.0405858   0.2957058  -0.1164830   0.0209941  -0.2245553
  -0.0026971   0.3078935   0.0091645  -0.0628140   0.2610772  -0.1454898
  -0.1322420   0.1812479  -0.1272031  -1.1359665   0.4786774  -0.7323184
   0.2679952  -0.2931211   0.2991708  -0.3349968  -0.5120083  -0.4912728
   0.0466085   0.0571697  -0.2965797  -1.1748673   0.6997827  -0.2546914
   0.7445331  -0.4991535  -0.7937238   0.2724789   0.2273685  -0.1868906
  -1.1345727   0.3629998   1.3399522   0.8337801   0.3758735   0.1321777
   0.0830270   0.0001630   0.2589909   0.7009067  -0.5496615   0.0919947
   0.3466886  -0.3408777   0.4783523   0.2008698   0.0546324  -0.3098198
   0.9030894  -1.0430686  -1.5870989   0.0650258  -0.2875611   0.0420238
  -0.1433000  -0.2006345   0.3362591   0.6659995   0.4971090   0.1752264
  -0.8242787   1.6826436   0.4994482   0.0301184   0.0649533   0.2118083
  -0.6208626  -0.5994514  -1.5144998   0.0211517   0.4558170   1.1371973
   0.6091355   0.0567131   0.0150526   0.0350605   0.2637184   0.1114936
   0.1457712  -0.0967545   0.2394871  -1.1988649   1.2666997   1.4473909
   0.4076051   0.0175165  -0.2133881   0.6308567   1.5082210  -0.6627719
   0.5663020   0.0982556  -0.3061229   0.0325320  -0.7681700   0.6284284
   1.3215756  -0.3172267  -0.9134401  -0.2474740   0.2782981  -0.2414270
   0.1578369   0.2411149   1.1457212  -0.0876063  -1.0745182  -0.7524843
  -0.1258966  -0.0032239  -0.1664815  -0.5144714   0.3952930   0.1900808
   0.2990312  -0.6252721  -0.1931175   0.1204382  -0.0239459   0.1575385
   0.3041434  -0.5938433  -0.4546097   0.1524423  -0.0536511  -0.2346641
   0.3247982   0.1257257  -0.0913810   0.1970592   0.2400559   0.8231671
   0.9767271  -0.1364875  -1.4895813  -0.0982097  -0.0776965   0.0530000
  -1.0486938   0.3397704  -0.1054030  -0.6057380   0.1010835   1.0742609
  -0.2372902  -0.1790720   0.0390068  -0.3722329  -0.0591106  -0.0157052
  -0.0738094  -0.2712751  -0.0238653  -0.0392036   0.1022606   0.2071140
   0.1486851  -0.0534133   0.2555980  -1.2940022  -0.7297022  -0.0323866
   0.3260173  -0.0072889  -0.0849002   0.0363714  -0.2187458   0.0174283
  -0.5305507   0.7708197  -0.8270381   0.3445581  -0.0312648   0.2467026
  -0.1401902  -0.1624133  -0.1697528  -0.4291455   0.8975920  -0.7492531
  -0.1497047  -0.4238564   0.1417649   0.0598892  -0.5750162  -0.4878539
  -0.0726188  -0.4474313   0.1043761   0.0091023  -0.0499376   0.0491632
   0.8836485  -0.9234229  -1.2037197   0.1110484   0.1378121   0.0375462
  -0.7639566  -0.4625396  -1.3352493  -0.1648566   0.0172827   0.1131381
   0.3976114  -0.6950952   0.4857418  -0.0546333  -0.1303780  -0.3788438
  -0.9565370  -0.0703567  -0.1138963   0.4898665   0.1460023   0.0424475
   0.1080946   0.0378075   0.3481086  -0.0430097  -0.0826781   0.1967965
  -0.2568385  -0.6171786   0.2517047  -0.1038087  -1.4079152   1.5573221
  -0.2051060   0.1517740  -0.0236665  -0.2298145   0.6671137   0.5618103
  -0.4349005  -0.2397245   0.5634288   1.0860927   0.1583629  -0.7064515
  -0.3447686   0.8117055   0.9717853  -0.1707787  -0.2721416   0.2383812
   0.3908903  -0.8470179   0.2982025  -0.3498245   0.3193401   0.2800707
   0.5113575   0.1462083  -0.0674620   0.2340113   0.0695112   0.3659905
   0.8232062   0.6363580  -0.5796908   0.0090020   0.4229017   0.1254483
  -0.2897666   1.4926802   0.7040765  -0.0645815   0.3091124  -0.1221290
  -0.9943952   0.0073487  -0.0582174   0.1753175   0.4117209  -0.4810069
  -0.4174756  -0.1066022  -0.2260641   0.3291734   0.0035393  -0.3068427
   0.3782976   0.4948395   0.5294286   0.1682053   0.1356361  -0.5107482
  -0.4378076   0.3390647  -1.6034345   0.0790664  -0.1000210   0.3539790
  -1.5446513   1.9231404  -0.9047256  -0.0682717  -0.0384834  -0.1717341
  -0.9311366  -0.4128797   0.1424367  -0.0690294  -0.0704618   0.0498840
   0.6563166   0.8807253  -0.4584858  -0.1002482  -0.1772728   0.3497204
  -0.2141225  -0.1675693   0.0958901   0.0923192  -0.0204328  -0.3187219
  -0.2904171  -0.2690206   0.7135782   0.2427218  -0.1208704   0.1936093
   0.0649260  -0.0991439   0.5445770  -0.0166879   0.0687297  -0.1621985
   0.0704850   0.3384280   0.0098329  -0.6313052   0.1916794   0.5040497
  -0.0056620   0.1558327  -0.1976177   0.1008129  -0.1486850  -0.2800307
  -0.2533224  -0.1127038   0.4141842   0.0964802  -0.0936519   0.0213616
  -0.1938338   0.0354239   0.1918974  -0.1272981   0.1566519  -0.5322799
   0.6564604  -0.4177450   0.6885606  -0.3028559   0.3055534  -0.0691564
  -1.0044855   0.6259171  -0.4926991  -0.4772201  -0.1058536  -0.7668061
   0.0697244   0.0695491   0.0941561   0.0032438  -0.0463046   0.0827807
  -0.5296767   0.2371686  -0.1010573  -0.3243441   0.5501564  -1.2749598
   0.2949065   0.1646781  -0.1503573  -0.7371119   0.3743194  -0.3501744
   0.1305502  -0.2719775  -0.0444580   0.4508727   0.4589830   0.6665704
   0.1380897  -0.3378415  -0.2253456  -0.3178017   0.6927935   0.1638181
   0.9686117   0.5912552  -0.2951713  -0.9940067  -0.1413073   0.9352067
  -0.7093504   0.3163059  -0.3170945  -0.7096209   1.4605030  -0.4039733
   0.0237440   0.0613684   0.7273830  -0.8377921  -0.7895639   0.4234922
   0.2799616  -0.2897124   0.0070919  -0.2351460   0.0072947   0.2963557
   0.0404788   0.0093845  -0.1597699  -1.1810547   1.3193213  -1.1444975
   0.0131227   0.3819976  -0.2118235  -1.2532619   0.9243413   1.6126068
  -0.0070421  -0.4039430   0.0641227  -0.6979113   0.9462250   0.8676812
   0.7815585  -0.6444589  -0.4124464  -0.2038273   0.3000434  -0.2263529
  -0.3748612   0.2884917  -1.2888910   0.0916946   0.7059393   0.4099951
   0.4057466  -0.0486278   0.1575351   0.7373919  -0.5221356   0.2731849
   1.0697873  -0.2056912   0.5655473   0.2980445   0.0760613   0.1488836
   0.6439618   1.0121265  -0.0848599   0.8338200  -0.8784693  -0.3920417
  -0.1005114   0.1083256   0.0717909  -0.4283435  -0.0362932   0.3799370
   0.5634459  -0.8202863   0.2911463  -1.1333774  -1.2659467   1.4459810
  -0.0441714   0.0990105   0.2697221  -0.0839710   0.1404694   0.0713007
   0.1082096  -0.4508597  -0.2848335   1.1387157  -0.3359310   0.3046450
   0.2488591  -0.1040344   0.2284298  -0.3945325   0.0594306   0.4781881
  -0.1012197  -0.0722580  -0.1649984  -0.1941452   0.3254231   0.4943771
  -0.4580386  -1.2775979  -0.3662556  -0.0748098   0.0393199   0.0464917
   0.3989628  -0.0750666   0.1135904   0.0455115   0.0814696   0.4053881
  -1.2823780  -0.2441516  -0.0249966   0.3736945  -0.2947908  -1.5543918
  -0.0922623  -0.1633230   0.2653597  -0.1085571   0.2917841  -0.0792834
   0.0849930  -0.3429852   0.1181320  -0.0713051   0.5886861   0.2492107
  -0.2054654   0.3240122   0.1291481   0.9275641   0.3399491   0.2497962
  -0.1409402   0.1480768   0.0501212  -0.5936594  -0.7727628  -0.5174069
  -0.4069495  -0.0128618   0.7596911   0.0119726  -0.1192007  -0.2901338
  -0.0654031  -0.0573731  -0.0771748  -0.2679776  -0.2504334  -0.0366416
  -0.4426269   0.3857382  -0.2010589   1.2715439   0.0956504   1.1699076
  -0.1175248  -0.0669397  -0.0619426   0.3974607   0.2417301   0.0082557
   0.3895094   0.1115078   0.1738870   0.2963663   1.4547223  -0.6206167
   0.1318015   0.0355686   0.3177156  -0.5799516  -0.3925217   0.0673672
  -0.0571405  -0.1907099   0.2131635   0.0621173   0.7635562  -0.9648775
  -1.8194217  -0.6387559   1.0368018   0.0931244  -0.0391694  -0.1474438
   1.3024128  -0.3524047   0.1444132  -0.4492666  -0.0301031   0.9608553
   0.3750307  -0.1575603  -0.0666274   0.3727739   0.2414569  -0.1548970
  -0.1755100  -0.3159280  -0.0275815   0.9156369  -0.0920899   0.0113300
   0.6423352   0.6857630  -0.0705027  -0.2359078   0.0471122  -0.1375240
   0.2156475  -0.1708761   0.0489181  -0.1559027   0.0661418   0.0615634
   0.9061473   0.0450697  -0.6030077  -0.1838207   0.1700808   0.0745835
   0.0843486   0.7315468   0.9802838   0.1674825  -0.1385152  -0.1175587
   1.3903283  -0.7442922   0.0585484   0.2612683  -0.1557139  -0.2072364
   1.4237299   0.4678736  -0.0681141  -0.3477980  -0.2788082   0.0187164
  -0.6840587  -0.9677422   1.1483615   0.0401605  -0.1363370   0.3416120
  -0.0083729  -1.0577592   0.6412332  -0.7337245  -1.3924725  -1.1648130
   0.1837744   0.0696729   0.1057436   0.9209320  -0.3860652  -0.7237152
  -0.5141479   0.3806860  -0.1301148   0.5402895  -0.4079162  -0.3077229
   0.2704878   0.1063076  -0.2923522  -0.4283579  -0.0685466   0.2199525
  -0.1023766   0.0647274  -0.0465326  -0.2576424  -0.4136424   0.9307112
   0.0454449  -0.2228073  -0.2836886  -1.1461348  -1.6803511  -0.9332549
   0.2415071  -0.1132663  -0.1631092   0.0625252  -1.3731749   0.2416057
  -1.0304408   0.8596269  -0.5139358   0.0745209  -0.2729848   0.1534155
   0.0264447  -0.3236515   1.3127252   0.1714706   0.0575317   0.1095348
   0.2476368   0.2894530   0.9271577   0.1007946   0.7155618  -0.7752869
  -0.1529694   0.3130993   0.1553240  -0.1325019   0.0498533  -0.1485011
   0.1244342  -0.7933016  -1.4148400   0.3046190  -0.0722431  -0.2635271
   0.2607791  -0.9769697   0.1403974   0.0188014   0.3702222   0.1460149
  -0.2214423  -0.0945239   0.0434491  -0.1262213  -0.3801623   0.2237576
  -0.7894126   0.5039174   0.3299129  -0.0914932   0.0914091  -0.1620180
  -0.0889431  -0.7259781   0.9021824   0.0358757   0.2569257  -0.1942049
  -0.0588376   0.6616260  -0.7171157  -0.7114470   0.0107159  -0.0174337
  -0.4248953   0.2512632  -0.0826034   1.5535992   0.3520443  -0.2112556
  -1.1227759   0.9087494  -0.1961431  -0.0170746  -0.1808582   0.0033704
  -0.2922855  -0.0502951   0.0865829  -0.1105966   0.3053202  -0.0919044
  -0.2410860   0.7276827   0.1070134   0.0161443   0.1736824  -0.1946968
   0.2178717   0.0374520   0.0486059  -1.1226662  -0.3319637  -1.6648337
  -0.0955988   0.1802964   0.4972173  -0.7973023  -1.0770004   0.3128870
  -0.1375212   0.3602008   0.0436407  -0.0705573  -0.0755552  -0.0512605
   0.2199606   0.6989612  -0.8390940   0.0329458  -0.1804175   0.0691704
   0.5035324  -0.5038527   0.8601257   0.1394160  -0.4389065   0.6135504
   0.1640643   0.1208866  -0.0278180   0.0527472  -0.3104560  -0.0893552
   0.1362293  -0.0251822   0.1504867  -0.6177186   0.1330620  -0.4424911
  -0.0483648   0.0342976   0.1023607  -0.0280642  -0.0933911  -0.1197574
   0.2683832   1.0924644   0.0797779  -0.2577965  -0.0492929  -0.2092534
  -0.5982675  -1.0839105   0.2603247  -0.2832378   0.1008544  -0.0045829
  -0.8231884  -0.6128597  -1.1340338  -0.5509861   0.5869960  -1.2432436
  -0.3133093  -0.1309599  -0.0193481  -0.2208865  -0.1881012  -0.2628830
  -0.0813378   0.4867210   0.2290484  -0.0503674  -0.6990412   0.2102867
   0.9678813   0.4563109   0.0897807  -0.0740333  -0.3026102   0.0195745
   0.2537699  -0.0331637  -0.2446491   0.0987886   0.2166624  -0.0991316
  -0.0316787  -0.7058037   0.5368726   0.2988421   0.1184731   0.1004553
   0.2996592  -0.4319718   0.8095661  -0.2642146  -0.3047914  -0.1228286
   0.5263872  -0.6987554   0.9919686   0.0276483  -0.1438625  -0.2482508
   0.9206027  -1.0668067  -0.7193041   0.6892808  -0.4897863  -1.0682402
   0.1551152   2.2315536  -0.9387021  -0.1126088  -0.2572220   0.1706845
   0.5454126  -0.1608435  -0.2897509   0.1913851  -0.1626499  -0.7552017
   0.3973381   0.6465942   0.0110352   0.0842034  -0.1052881  -0.3383754
  -0.1977850  -0.0560768  -0.0029972  -0.0721125  -0.0518560  -0.4443457
   1.0647551  -0.2127268  -1.7127079  -0.3200758   0.2543543   0.4314007
   1.2455125   1.1646080  -0.4724106  -0.3916816  -0.2623788  -0.0265714
   0.2320074  -0.0568236  -0.3728162  -0.8554262   0.9223522  -0.4786520
  -0.2073711  -0.0339715   0.0429657  -0.6137269   1.0217997   0.6303660
   0.2974262   0.5924012  -0.2574019   0.0798125   0.0059080  -0.3039066
   0.0172090  -0.1196686  -0.2528645   0.0063636   0.3892861   0.2809007
   0.0437882  -0.0267491   0.1490133  -0.0257839  -0.3043856  -0.0024377
   0.0205309  -0.0389361  -0.3055314  -0.4126747   0.4940075   0.6526550
  -0.1922941   0.1176252   0.0924697  -0.4663481  -0.0025634  -0.1922794
   0.1359185  -0.0373802  -0.0373293   0.9664816   0.2653712   0.5200608
   0.3215750  -0.1257657   0.3174269   0.9336309  -0.2367258   0.5916243
  -0.4726705  -0.2863229  -0.1627044   0.7190763   0.8587332  -0.5529031
   0.0185027  -0.0892274  -0.1864671   0.3157767   0.6412903  -0.9470816
   1.0764260  -0.9283940   1.2450081   0.3607618  -0.5605537  -0.4373272
  -0.2954344   0.0342975  -0.1641129   0.1302812   0.3205558  -0.1276961
  -0.1021944   0.0535726  -0.3240366   1.1043803  -0.6909379   0.0472983
   0.1918420  -0.3354165  -0.0954435  -0.3500376  -0.7113266   0.9712746
  -0.2024771   0.0897822  -0.0517968   1.3460100  -0.1420776   0.2913069
  -0.4417108   1.0146288  -0.9374776  -0.3431105   0.0502633   0.3514191
  -0.0519777  -0.0813089   0.1841322  -0.0179516   0.0267644   0.9531443
  -0.3184619  -0.2223733   0.0178926  -0.2687270  -0.3503560   0.1603990
  -0.0318104   0.0567628  -0.0205982  -0.1601105   0.1172101  -0.2350545
   0.1089700   0.1744278  -0.1498884  -0.0269463   0.0949435  -0.0445834
   0.9140499  -0.6711213   1.0659627   0.1264188   0.4399388   0.0647190
   0.0251698  -0.9231059  -0.7530093  -0.2760609   0.1327222   0.1376842
  -1.3562284   0.0691227  -0.9264890  -0.0117902  -0.3210644   0.0753839
   0.5624328   0.5653956   1.8128624   0.1167890   0.7659557  -0.3710866
  -0.8405349   0.8593946  -0.0757236   0.0862517  -0.1100508  -0.1240541
  -0.7535914  -0.6540063   0.7263304   0.1429758  -0.6856197   0.2346693
  -0.0487437   0.2470037   0.1085875  -0.0681798  -1.9180490   0.7301075
   0.6063600   0.0895049  -0.5053109   1.5234574   0.9522849   0.6386979
   0.0336776  -0.2691630   0.0840293   0.2969138  -0.3823426  -0.0985336
  -0.4945390   0.3139599   0.3945618  -0.0015551  -0.5348849   0.7033373
  -0.2224379  -0.1352152   0.1875580  -0.4594330   1.5454644   0.5449593
   0.0530103   0.1456684   0.1846678   1.5571080  -0.3498586   0.6123946
   0.0899539   0.2512191   0.8964192  -0.2550657  -0.1937903  -0.0073457
  -0.0338328  -0.3400318  -0.1018305   0.6941581   0.6653437  -0.4268240
  -0.3421302  -0.1767652  -0.0506068   0.3035831  -0.5059618   0.3271905
  -0.0497661   0.1978495   0.0860698  -0.0929992  -0.0401288   0.0285343
   0.2856429  -0.0870945  -0.2908457  -0.2268363  -0.0414072  -0.0115440
  -0.5885147   1.4604968  -0.7005524   0.0147086   0.2784511   0.3183980
  -0.4735284   1.9060007   0.5084149   0.0108088   0.3109364   0.1631648
  -0.5096540  -0.0410379   0.3037453  -0.0040040  -0.0521723   0.3316041
   0.2110598  -0.1950708  -0.4930670   0.1496089  -0.0621910  -0.3235943
  -0.0731055   0.2552594   0.0157986  -1.3932746  -2.0370190   1.9403847
   0.1292167  -0.0568863   0.1973889   1.9142704   0.8889046  -0.4724728
   0.1481544   0.1320534   0.1262714   0.5840822  -0.8729132  -1.2690388
  -0.1539218   0.3786519  -0.0999733   0.8589765  -0.9014865  -0.0082154
   0.9398502   0.1065468  -0.2560444  -0.8044033  -0.1934060   1.0915096
  -0.0985813   0.0288377  -0.1713199   1.0095087   0.1470879   0.8677407
   0.4909257  -0.0915134  -0.4245458   0.1081740  -0.1757593   0.0187406
   0.1217352   0.1597538  -0.0045788   0.6915864  -0.1426701  -0.8086850
  -0.0650563  -0.0745612  -0.0834872  -1.1713795  -0.3195677   0.0507159
  -0.1960900   0.2836340  -0.0404602  -0.7597831  -0.2467482   0.7278906
  -0.1220817   0.6470383  -0.4497264  -0.0710732   0.0189641   0.3652171
  -0.6357055   0.6333971  -0.4769859   0.7078916   0.7397650   0.2108580
   0.2025837  -0.1339955  -0.1505641   1.0744040  -2.1083405  -1.0343221
   0.7372093   0.0759467   1.7035872  -0.0820794  -0.3657098   0.0167393
  -0.7020428   0.1469127  -0.1462539   0.1308758  -0.3342939  -0.5343850
   0.0696151   0.0764751  -0.1032574  -0.0301140  -0.6947234  -0.0481950
   1.4131321   0.2332003  -0.2962730   0.3523488  -0.3245814   0.3233788
  -0.2410170  -0.0707215   0.2232329  -0.1605692  -0.1235316  -0.1433445
  -0.1999484   0.0318292  -0.1082668   1.0888044  -0.6244450  -0.5268984
  -0.1700067  -0.0398624  -0.2709316   0.1965973   0.4801607  -0.9784489
   0.0524456  -0.1420800  -0.0615367   0.9739033  -0.1770908  -0.1084858
   0.4922828  -0.5747355  -0.6743557  -0.3341033   0.0189309  -0.4854852
  -1.2214488   1.0537828   0.1348222   0.9970810  -0.1801238  -0.8727786
  -0.0332764  -0.0936925   0.1855080   0.1234064  -0.0041308  -0.1040156
  -0.1349782  -0.0525255   0.1118558   0.2318098   0.4060994   0.3234524
  -0.2519659   0.1387486  -0.1572566   0.0728707   0.3449082   0.1053797
   0.0477704  -1.1048572  -0.4076750   0.2553071   0.1908057   0.1535756
  -0.4568500  -0.5363196  -0.3244454  -0.1652072  -0.1071553   0.1873777
   0.0716197  -0.0034062  -0.0480665  -0.1408366  -0.1913351  -0.2352287
   0.1001480  -0.1111561   0.4604852   0.4504063  -0.8930308   0.2772727
  -0.3064506   0.1352973  -0.1988579  -0.3247059  -0.8459443   0.0943391
  -0.2689261  -0.5188781   0.2314843   0.0712720  -0.0257085   0.0049316
  -0.7012120  -0.9093951   0.2730172  -0.0266988  -0.0547760  -0.1259172
   0.0212909  -0.4396151  -0.0542158  -0.4575236   0.6210486  -0.8119173
  -0.2653391  -0.1328551   0.1295560  -0.2640348  -0.0865165  -0.1251874
   0.0843019  -0.3645436   0.0285420  -0.1656001  -0.1163360   0.1625766
   0.0947676   0.0233564   0.0381657   0.0817727  -0.1341162  -0.1000436
  -0.1965300   0.3172580   0.6781405  -0.0195263  -0.0634921   0.0681033
  -0.6856365  -0.7346620  -0.5336048   0.3092662  -0.1037066  -0.0961333
  -1.2471330   0.0739895   0.4710649   0.8338322  -0.4140061   1.7068089
   0.1172090  -0.2514158  -0.0431567   0.2570820  -0.7409887  -0.6397509
   1.9781320   0.6214750  -0.0540385  -0.1165870  -0.4639433   0.4310219
   0.2945728  -0.5062901   0.6332104  -0.6077864  -1.3285546   0.9605524
   0.0946469  -0.0500713   0.0812146   0.5736376   0.9613700   0.9847600
   0.1433359  -0.0686224   0.0561716  -0.0120791  -0.0403430   0.3831626
  -0.6436455  -0.4410405  -0.0865598   0.4086460   0.3589013  -1.2785372
   0.0512582   0.1912218   0.1000638  -0.3503906   1.2066813   0.7137331
   0.3040931   0.7418151   0.8059882   0.2736759   0.1894845   0.0602513
  -0.0662169   0.0798053  -0.1586566   0.1458567   0.0001470   0.1337226
  -0.4640508  -0.5908167   1.3270297   0.1512156   0.7752189  -0.1561232
  -0.4040372  -0.8100335  -0.5494154  -0.0785717   0.0430781  -0.3428226
  -2.2116493  -0.3210010  -0.5560519   0.1819702   0.1080683  -0.2026163
  -0.0141501   0.0885770   0.4552096   0.4508484   1.6570714  -0.5650037
  -0.5799360  -0.1622213   0.8555115  -0.0462436  -0.4393212  -0.1419486
   0.7328308   0.0919656   0.6136961  -0.1908738   0.7349765   0.3227346
  -0.2375935  -0.0946923   0.1596396  -0.6235389  -1.2100124   0.2185515
  -0.1656515  -0.4700423   0.4957896   0.0778231   0.0765304   0.0452904
  -0.3102012   0.7439860   0.4546938   0.8274866   0.5094584   0.8416138
   0.4092789  -0.6644150   1.0947573   0.1614628   0.1032736  -0.1522860
   0.1598012   0.0700463  -0.2496361  -0.2666207  -0.0880071  -0.2541350
  -1.6015695  -0.8321080  -0.0151108  -0.1725371   0.1537433   0.2090567
   1.4749918   0.9442633   0.7270179  -0.1282421   0.1046272   0.1642862
  -0.1923002  -0.5254859  -0.2759059   1.3316425  -0.4885425   0.3843746
   0.0570895   0.0013348  -0.0500888   0.4327623  -1.3795217   0.9250819
   0.3622126   0.8252807  -1.6977495   0.0726376   0.2065515  -0.5379018
  -1.7506423  -0.8936744  -1.2282890  -1.4896203   0.4430252  -1.0367796
   0.1457065  -0.2043914  -0.1583880   0.6869143  -0.0311896   0.1528576
  -0.5654070  -0.1659837   0.0252217  -0.0104529   0.1247434   0.0545967
  -1.0159117  -0.8444214   0.5678163   0.2519238   0.5635848   0.2584493
  -1.5614166  -2.1685566   0.1017777  -0.0871011   0.0563063   0.2258062
   0.1432525   0.0099648   0.0529698   0.1583880  -0.2644152   0.2727140
  -1.3186800  -0.5053493  -0.1986737  -0.0096232  -0.2657121   0.0008472
  -0.5796244   1.2856594   1.8355715   0.2205622  -0.0730328  -0.3990124
  -1.1842262  -0.1303166  -0.3264322   0.4733299  -0.0136334   0.0372276
   0.2286598   0.4071458  -0.1405638  -0.0668744  -0.1247960  -1.0033495
  -0.1833825   0.5737250   0.2732508  -0.7144060  -0.8593461   0.9219130
   0.1480935  -0.2970243   0.0762292  -0.8076384  -0.6969454   0.7692853
  -0.1185453   0.1748075  -0.0006946   1.0451384   1.5229669   0.0201656
   1.3977368   0.4949496  -0.6845313  -0.2547601  -0.2429446   0.7814498
   0.2890983   0.3612258  -0.0859775  -0.2128184  -0.0735167  -0.0400265
  -0.3848014  -0.1419080   0.1185190   0.9055759  -0.3836217   0.2386874
   0.0360338   0.1464829   0.3199925  -1.3133625   0.7551340   0.2722301
   0.2995598   0.3152527  -0.1239177  -0.3231964   0.5312298  -0.4572147
   0.3428868  -0.4346492  -0.8042212   0.4278941  -0.1357259   0.5170217
   1.3392649   0.4464744   0.4186796   0.2635087   0.1931555  -0.9046869
  -0.0171065  -0.1985540   0.0300913  -0.7770294  -0.5162049   0.0402299
  -0.3302287  -0.3265111  -0.1092444  -0.0132462   0.3612901   0.0995262
  -0.0047776  -0.5900362  -1.4300107  -0.2291351   0.6519103  -0.3009238
   0.3852699   0.2518228  -0.0805372  -0.5612616   1.6545507   0.4575880
   0.6069862   0.0945885   0.5202610  -0.9085909  -0.6558581   0.3250379
   0.2756519   0.2752400   0.5404978   0.0911811  -0.1268540   0.0522879
  -0.3785890   0.2919591  -0.1251581   0.0851158  -0.0050132   0.1771485
  -0.0854825   1.3157537  -0.0853818  -0.8875711   0.1793599  -0.5411855
  -0.2404207   0.1129882   0.2651717  -0.1222219   0.1998582   0.7351124
   0.0856766  -0.8044058  -1.2494305   0.0609474   0.1904840   0.1259908
   0.4644143   0.5189865   0.2880480   1.6930944  -0.2404886   0.8097151
   0.1243088   0.1803822   0.1373944  -0.6648704  -1.1164521  -0.1943160
   0.2403869   0.5186433   0.4073125   0.1344856   0.1051612   0.0095135
  -0.3415029   0.1985630   0.2659074  -0.7484004   1.1665615   0.0495194
   0.3861860   0.0825601  -0.1405858   0.0783786   0.0612027  -0.6478174
  -0.3834520  -0.1500733   0.0949814  -1.4841691   0.0270566  -0.9692916
  -0.9434225   1.0821643  -0.7815602  -0.0343017   0.7055021   0.0590769
   0.0083462  -0.7975106   0.9555241  -0.2548188   0.2646430   0.7484223
   0.1610450   0.3338480   0.1848260  -0.6194344  -0.0107777  -0.7844481
  -0.3589813  -0.7806539   0.7849740  -0.0155855   0.2234251   0.3750075
  -0.1620825  -2.1726318   0.5568324   0.2307743   0.1214636   0.1995530
  -0.0751199   0.0768549   0.2396790  -0.2634385   0.0527953   1.4767697
  -0.6099051  -1.4196681  -1.2017827   0.3322951   0.1806490  -0.0021745
  -0.5245147  -0.9555128   0.8407061  -1.0847427  -0.0285043   1.5901481
   0.2258081  -0.0669368  -0.1931257  -0.0282560   0.0666030   0.0444186
   0.1308650   0.1605935  -0.2149800  -0.3535410   0.8565735   0.1728403
  -0.2363335  -0.0954422  -0.0682286   0.3202091   0.2371611  -0.2356827
   0.4714556   0.4183809  -0.0052936  -0.9326028  -0.4866910  -1.0112067
   0.4004044   0.6302562  -0.2780010   0.0974704  -0.2499097  -0.2640492
  -0.0199930   0.1444915   0.3586987  -0.8778074  -0.3595148   0.0881014
   0.0936028  -0.5257589  -0.0507169   0.2483016  -0.0700083  -0.2742791
  -0.0232780   0.1307439  -0.1639530  -0.0605711  -0.0525112   0.0181161
   0.6857974   0.3511141   0.0587814  -0.0383717  -0.1622777  -0.2761067
   0.7827078   1.5383478   0.0487293   0.0379357   0.0045979  -0.2718106
  -0.7087154   0.3452142   0.2020297   0.1785850   0.1814329   0.3676049
   0.2857940   0.3966143   0.6067775  -0.0366879   0.1879339  -0.4314907
   0.0859979   0.4219416   0.0021769  -0.0177058  -0.1823941  -0.0841075
  -0.1371495  -0.0285064  -0.1490902  -1.1702853   0.4957949   0.1913917
  -0.1795058  -0.1069132  -0.1066977   1.0198488   1.0319665   0.2447586
   0.1096381   0.4198355  -0.3485292   0.2829517   0.4519826   0.8061900
  -0.4636091  -0.1215290  -0.4297696  -0.0063775   0.0125739   0.0881718
   0.1924716   0.1030531  -0.7136860  -0.1177668  -0.0929990  -0.0577787
  -0.4072521   0.0906845  -1.2423046  -1.0180931  -0.1524289  -0.3771356
   0.9124558   0.3475836  -0.6179146  -0.1239563  -0.4587833   0.0295836
   0.3355532   0.1005393  -0.0507098   0.5469780   0.8624382  -1.0573083
  -0.0448163  -0.2399682   1.4894472  -0.1077016  -0.1529148  -0.1132889
   0.1709643  -0.3978941  -0.0463035   0.4392977   0.5434304  -0.2574530
   0.9973538   0.9786181   0.3817589  -0.0139608  -0.0807617  -0.1836546
   0.3462076  -0.7103456   0.0342697  -0.0422494   0.2300249   0.1028649
   0.5991371   0.5507174   0.3096606   0.8631866   1.1212895  -0.4045347
  -0.1902392  -0.0249258  -0.1527553  -0.1162639   0.1170783   0.1050776
  -0.1529848  -0.3702337   0.3263170  -0.0857693   0.1220298   0.1379746
   0.0724894  -0.0907107  -0.0344963   0.0696617   0.0486369  -0.0800136
  -0.8272825   0.7690844   0.0084352  -0.0099577   0.0378192   0.2675840
   0.5369093  -0.4102440   0.2060885  -0.3791553  -0.2335966   0.0364505
  -0.1716680   0.4009421  -1.0659411  -0.1412038   1.2321767   1.3724208
  -0.8432868  -1.1115217   0.5940677   0.2955394  -0.0360278  -0.0852577
  -0.1392190  -0.2968399   0.2243910   0.1110657   0.1858134   0.2180095
  -0.3480155   1.5481887   0.4666924   0.0521672  -0.2259758  -0.1233492
  -1.8526005   1.2449243   0.1167146  -0.0913045  -0.0202706   0.3534545
   0.5811135   0.5457277  -0.0497542  -0.3250582  -0.0454591  -0.8521812
   0.1764628   0.1212322  -0.1075554   0.2275247   0.0219237   0.7233385
   0.0870121  -0.1743870   0.5547123  -0.0997362  -0.5546972   0.1791117
   0.6022895   1.6889258   0.4108067   0.1431309  -0.3209113  -0.2073374
   0.1076369  -0.0738067   0.1730455  -0.4305612   0.8764945   1.4034271
  -0.2684145   0.2852336   0.0507074  -0.1379544   0.2106594   0.0506321
   0.3784465  -0.9702921   1.3873751  -0.0639152   1.2441540  -0.5839201
  -0.4566917  -0.1428323  -0.0674792  -0.9701803  -0.3229014   0.7380849
  -1.7445598  -1.2677889   0.2181040  -0.0460051  -0.1130607   0.1295041
  -0.0644530   0.0165834  -0.0496078   0.0759904  -0.2605821   0.2088846
   0.0413653   0.5865136   1.5880125   0.5887397  -0.0863195   0.1895423
   0.1924810   0.9529419  -0.7300213   0.0839604   0.2364941   0.1917398
  -0.5307046  -0.9652591  -0.4299582  -0.0081748  -0.3661744  -0.0197593
  -0.4203159  -0.4122668   0.5902968   0.7133528  -0.0426257  -0.0177321
   0.3785996  -0.9968163   0.9420528   0.1148308   0.2225817  -0.1594866
  -0.3222475  -0.9691947   0.6041034   0.4525008  -0.9587556  -0.8644529
   0.2431399  -0.0542051   0.1774070   0.7742813   1.6649849  -0.3685402
   0.6412674   0.1792637   1.3525064   1.2738946  -0.4343682   0.3597319
  -0.1998662   0.0038225  -0.0953464  -0.1890277  -0.3779379  -0.2971529
  -0.1706594  -0.1362387  -0.1245366  -0.0665268   1.4646797  -1.1280324
  -0.1268322  -0.4099535   0.1322085   1.3725967   2.3900266   0.4978402
  -0.1071935  -0.0396333  -0.3156148   0.0338155  -0.3393544  -0.5991042
   0.9915724   0.9323756   0.6933753   0.0913187  -0.1842677  -0.0366126
  -0.2161746   0.1479686   0.5185435  -0.6294838   0.1321306   0.6116936
   0.2284860  -0.1578802  -0.0527938   1.1183136  -0.2174865   0.7268827
  -0.0187134   0.1698312  -0.2642120   0.4548293  -0.0792831   0.1187935
  -0.5636554  -0.6384185  -0.9588868   0.3132823  -0.2009818  -0.2830359
   0.6776128  -0.0214036  -0.0215264  -0.0218497  -0.1927893  -0.0069652
   0.0509644  -0.1186122  -0.8724986  -0.1794576   0.0753115  -0.4698102
  -0.0552907   0.0419099   0.1765745  -0.1278965   0.0757417   0.1131232
   0.3284586  -0.0813699   0.3695924   0.0554431  -0.4094207  -0.2092774
  -0.4219981  -0.1499413   0.4020860  -0.3263322  -0.0932592  -0.1306299
  -0.7939657   1.6431210  -0.1421766   0.3020648  -0.1878004  -1.1394689
  -0.2141490   0.1489842   0.1265055  -0.2617590  -0.8194755  -0.1711591
  -0.1830059   0.0625707   0.1697257  -0.0414281  -0.0150003   0.3900083
  -0.0862963   0.0184842  -0.2137773   1.1968147  -0.6729319   0.3624202
  -0.3055888  -0.0703409   0.2341468  -0.4200581   1.4789717   0.6886022
  -0.1369889   0.2362602  -0.2995625   0.4976974  -0.9164949  -0.0608481
   0.6367864   1.0104809  -0.6912996   0.2633537  -0.2590336   0.0198854
   0.2937326   0.1684211   0.1643825  -0.1869480  -0.3560398  -0.1449848
  -0.1057081   0.0235186   0.3517076   0.2448811   0.0802804  -0.1645827
   0.0642469  -0.1219498   0.0566810  -0.0254541  -0.1021710   0.3145723
  -0.6398224   1.2090361  -0.2752352  -0.5646115  -1.0301560   0.4295433
   0.0439454   0.0134946  -0.3106855   0.1120406   0.1991915   0.7142745
   0.4999700   0.8162608   0.2941873   0.0402591  -0.0320765   0.3893391
  -0.6593966  -0.3838488  -0.3485450   0.0721750   0.1500512  -0.3850741
   0.2389318  -0.0952840  -0.1446766   0.1160099   0.6290459   1.1031555
  -0.2483924  -0.0116647  -0.2841861   0.0874587   0.2465364  -0.1036903
  -0.1699807   0.2794160   0.1066354  -0.2924971   1.4543861   0.3652969
  -0.0621131   0.0011089   0.0326290   0.1715770   1.0575884   0.6775263
  -0.3804908  -0.0858947   0.0694103   0.3205231   0.6544647   0.7439051
  -0.0102463  -0.3691385   1.2359692   0.0721620  -0.1907315  -0.0843358
   0.1167226   0.9246760  -1.4561922   0.3884851   0.4073238   0.2735159
  -0.5752119   0.6536050   0.5653768  -0.2876853   0.4035114  -0.5294935
  -0.1206853   0.1275146  -0.7939408  -0.4000863  -0.0210361  -0.4234137
  -0.0788744   0.3488762   0.2224037  -0.6473688  -0.2259483   0.0223450
  -0.8773381   1.1569139  -0.5472735   0.0879998  -0.3656116  -0.0645951
  -0.0225509  -0.4320275   0.0372645  -0.0522580   0.0051267  -0.1238967
   0.0595074  -1.0779555   1.2944476   0.0339395   0.3111988  -0.1776271
   1.8621509  -0.8004825   0.9532374  -0.2136925   0.1081253  -0.1032517
  -0.4026396   0.7556894   1.8044089  -0.9183205  -0.5937119   0.6831662
  -0.5846087   0.1330849  -0.0104236  -0.0936165  -0.0931216  -0.2813367
   0.1573412   0.0596238   0.2208516  -0.0760662  -0.3448808  -0.0288143
  -1.2827722  -0.3375852  -1.1282131   0.0594319  -0.1220869   0.2468225
  -1.0263326   1.1404998   0.3403876   0.1597593   0.1175470   0.0421740
  -0.1125820   0.0918013  -1.0812658   0.9709429   0.3645481  -0.4854273
  -0.1884540   0.1239221  -0.0005596   0.0537172  -1.5905261   0.6714563
   0.0187133   0.0684751  -0.1884793  -0.9623757   0.1502438   0.8576374
  -0.9208850   0.4175131  -0.3873345  -0.0703927  -0.5331350  -0.1281642
  -0.3323464  -0.2694281   0.4188608   0.0321324  -0.7419778  -0.6928926
  -0.3238130  -1.2997450   0.0895432   0.2703013  -0.8030692  -1.4526286
  -0.1353815  -0.1372428  -0.3903582  -0.1983811  -0.2195379  -0.0268054
  -0.0850899   0.2417803  -0.1987085   0.7193820   0.6591584  -0.7006445
  -0.1626084  -0.3256966  -0.0409396  -0.7711829   0.2273795   0.0416580
   0.1318179   0.0283757   0.3358845   0.7259290   1.1036874  -0.5310491
   0.0791266  -1.2861509   0.3021657  -0.2278014   0.0235585   0.3554814
  -0.0162511   0.4603422  -0.9782958  -0.3510371  -0.0274155   0.6009182
  -0.1612787   0.1329117   0.0668263   1.1352175   1.0436322  -1.0880327
  -1.2803304  -0.3456851  -0.8769540  -0.2565914   0.1783120   0.4330044
  -0.6401302   1.2200918  -0.2958018   0.2595056   0.5397745  -0.7277206
  -0.1032334   0.2472069  -0.0500856   1.1082010   0.5269926  -0.3223956
  -0.5437767   1.4853306   1.9221023  -0.1261030  -1.0817497   0.1542169
   0.0812523   0.1041000   0.0792161  -0.1367542   0.3521280  -0.3025214
   0.1365507   0.2513906   0.3859537   1.9793260   0.2903390   0.5701062
   0.1405385   0.1856114  -0.2497827  -1.7038332  -0.0791809   0.2034573
   0.3576140   0.4234470  -0.0389825  -0.7576257  -0.5752234   1.0181377
   0.4248348  -0.3626925   0.3610878  -0.0891314   0.5514289   0.1740669
  -0.5403057  -0.5183374  -1.6790757  -0.5236107  -0.4869502   1.0225666
   0.3340261  -0.1920679   0.0881233  -0.1310300   0.0365810  -0.0418773
  -0.0110667  -0.1385537  -0.2708795  -0.1608006  -0.1743735  -0.1752556
   0.2108584   0.1531988  -0.0551223  -0.1468896  -0.0572806  -0.1645061
  -0.4085938  -0.5705726  -0.2671597  -0.0135330  -0.1249141   0.1653499
   0.4620187   0.4258049   0.1732446   0.0169847  -0.4613661  -0.0841011
  -0.3284296  -0.6769274  -0.5292171  -0.5045879   0.1002446  -1.2526075
   0.3206423   0.2163229   0.0664864  -0.2840425   0.0209375   0.0076542
  -0.5001813  -0.3763586  -1.6102552   0.2311961   0.2585460  -0.0480316
  -0.8964650  -0.3603208  -0.1708874  -0.3031559   0.1430504  -0.1321951
  -0.6415096  -0.0119379  -0.3111300  -0.2911177  -0.0468957  -0.1622875
  -0.3677605   0.8712421  -0.1147540   0.0822162  -0.4510240   0.2403409
  -0.1790988  -0.6990242  -0.9254699   0.3053021  -0.0175183  -0.2417757
   0.0647468  -0.1012187   0.0519753  -0.0745875   0.2275539   0.3473729
  -0.1834059  -0.6868913   0.3991473  -0.0908422  -0.2573125   0.0764353
   0.7834445  -0.9991692  -0.8540812  -0.2151200  -0.1026620   0.2689108
   0.6805461   0.3375114   0.8910502   0.7508342  -1.1036529  -0.0884174
   0.8373038   0.0146358   0.1290880  -0.4232256  -0.9118958  -0.2208352
   0.2613552   0.6309554   0.4039401   0.2369393  -0.1455282  -0.0522768
   0.5217427   0.4439458  -0.4095362  -0.5603835   1.2487104   0.0961152
  -0.1117528  -0.3023004   0.1456043   0.4389954   0.4114924  -0.4244117
   0.0981563   0.5011394  -0.5030905  -0.1181385   0.2248643  -0.3702949
  -0.4435599   0.5050473  -1.2668587  -0.1500717  -0.1218355   0.1981042
  -0.5614106  -0.7916943   0.6039528   0.2183155   0.0945865   0.1753096
   0.2438956  -0.0034936  -0.2902406  -0.0793939  -0.1873478   0.0577276
   0.2396380  -1.2032736  -0.1921460   0.1229266   0.3580905  -0.1212057
   0.0942793   0.6448998   0.4912956  -0.3391306  -0.0131159   0.2377669
  -0.4469019  -0.7803072  -1.1974812  -0.2727928   0.0171831   0.6828657
   0.0779128  -0.1596537   0.1363783  -0.2001951  -1.0980470  -0.4124814
   0.2841808  -0.5825805   2.0599149   0.0945156  -0.1995221  -0.2046487
   0.2464421  -0.0526416  -0.2184612   0.4455540  -0.3207692   0.1696281
   0.3964499  -0.2610006   0.2180179  -0.2403858   0.2146517   0.2198081
   0.2679324   0.4432875  -0.2645585   0.5139532  -0.2973119   0.8532172
  -0.2987541  -0.0956963  -0.0045349   1.7776992   0.0595099   0.1441926
   0.0619503   0.2651673  -0.2241685  -0.2744473  -1.3539377   0.3191293
  -0.3922364   1.1455486   1.4181665   0.0110416  -0.2596311   0.2445743
  -0.0087806  -0.0053714   0.1833404  -0.1259495  -0.1278175  -1.5660057
  -0.2137472  -0.1183899  -0.1991013  -1.1570873   0.2879468  -0.4301436
  -0.0587293  -0.1648690   0.3983485   0.2120710  -1.0137302  -0.4210852
   0.2515877   0.0287087  -0.0729029  -0.6328298   0.9617031  -1.1166507
   0.3588594   0.0008769  -0.1137471   0.3746477  -0.1774286   0.1891499
  -0.0201919   0.1440174  -0.0652428   0.1350795  -0.3209565  -0.0405859
  -0.4066593   0.0943719  -0.0187602  -1.0398544   0.3175948  -1.2085123
   0.5355062  -0.2469729  -0.2142576   0.6839158   0.0031034   1.1216851
  -0.3499618  -0.0529186  -0.3759297  -0.0454049  -0.3775991  -0.1886452
  -1.4442079  -0.4672644   0.4951236   0.8545934   0.5450386  -0.9527054
   0.0416280  -0.1496551  -0.2120619  -0.1078965   0.0430513   0.2449998
   0.0605422   0.0378597   0.3722802  -0.3797517   1.0328468  -0.5280458
  -0.3474597  -0.0459708   0.3056498   2.1185346   0.6181031   0.8451088
  -0.0921408  -0.0722142   0.2960805   0.5242010   0.5161572   0.0879486
   0.8513129   0.7856663   0.4203603  -1.0079282  -0.9497575   0.4685597
   0.3976816  -0.2659516   0.0158830   0.0523378   0.1174415   0.1342744
  -0.1105389   0.2493408  -0.0233701  -0.3293497  -0.8717875  -0.4392236
  -0.1688897  -0.1773180  -0.0970022   0.6442699  -0.7400678  -0.4462805
   1.0873861  -0.4027566  -0.1496498  -0.0204911   0.1055877  -0.2934312
   0.2176398  -0.1447092  -0.3907989   0.0992821  -0.2497743  -0.3078381
   0.8755824  -0.9532322  -0.1125975   0.2429220  -0.5552011  -0.3132540
   0.6355307  -0.7820787  -0.1024481   0.1625500   0.2083542  -0.1134787
  -1.1610189  -0.6846730   0.2530713   0.5276409  -0.8202339  -0.5971497
   0.1622447  -0.4320172   0.0931220   1.1179513  -0.2361982  -1.3166131
   1.2094442   0.1031648  -0.4792997  -0.2348354  -0.1774719   0.1053170
  -0.6110729   0.9455531   0.6932617   0.2807092  -0.0140195  -0.1883358
  -0.3610069  -0.1456322   0.2687221   0.0903166   0.3478503   0.0566194
  -0.3007070   0.0923760   0.2817527  -0.0838460  -0.0440687  -0.0881642
   0.3070531  -1.4414356  -0.6277257   1.1012946  -1.3875993   0.9377831
  -0.1113737  -0.0030180   0.0280112  -0.1364612   0.4263785  -0.9381523
   1.0590345   0.0385803  -0.4462978  -0.2197368  -0.0958940  -0.2201966
  -0.3869854   0.0625773   0.3580193   0.1196756   0.3514470  -0.0251947
   0.3643503  -1.7855484  -0.0200052   0.0073913   0.3748140  -0.1027093
   0.3216151   1.5032462  -0.8386932  -0.0223110   0.4695190   0.2293141
   0.2112467   0.2386631  -0.0144555   1.7153479   0.5305813   0.1469600
  -0.4790051   0.0839997   0.1028963  -1.1727094  -0.9836468   1.0565579
  -0.2648781   0.6003397  -0.0313494   0.1731397  -0.0504096   0.4096174
   0.1912391  -1.1449867  -0.7379091   0.4501106  -0.7248005   0.2746737
   0.2653202  -0.0324625   0.0567233  -0.8184867   0.3099754   0.6869654
   0.8063707   0.4946846   0.8857918  -0.1600702   0.0088548   0.0694101
  -0.2028602   0.3437623   0.2974179  -1.3681367  -0.6721686  -1.0319807
   0.1457784   0.6193080   1.6070175   0.7755081  -0.0652038   0.1101694
  -0.3032603  -0.3575950   0.0979595   0.2810625   0.2342473   0.1655278
  -0.1211382   0.3641435  -0.0608633   0.2095502   0.0372059   0.0205863
   0.0061198  -0.0927049  -0.1939150  -0.2103900   0.0318090  -0.0646990
   0.1763001  -0.1198506   0.2292169  -0.1091663  -0.1647545   0.1401022
  -0.1681913  -0.1372729   0.1626461  -0.0438449   0.0255535   0.1531579
   0.0498860  -0.3443311   0.3632019  -0.1357880   0.0780903   0.0405568
   0.0095056   0.1319784   0.1504623   0.1967735   0.1197042   0.0151391
  -0.0685479  -0.4325180   0.2448557   0.2246697  -0.1594356   0.1091808
  -0.0936707   0.3153159  -0.0853665  -1.2813540  -0.2916230   0.2981991
  -0.5562258   0.4041228  -0.0096585  -0.0111138   0.1108019  -0.1745119
  -0.2728928   1.5730040  -0.4009733   0.5279298  -0.3184867   0.1979374
  -0.1314311   0.0725094  -0.0463785   0.6724071  -1.2223650   0.5185258
  -0.2995854   0.1281257  -0.3540126  -0.3009948  -0.0921403  -0.0213901
  -1.0968786   0.6864546   0.7971569  -0.1873853   0.1463175   0.4683970
  -0.1000595  -0.1871150   0.1038819  -0.1204010  -0.0637026   0.1137759
  -0.0319650   0.0580620  -0.4163607   0.9159435  -0.1132806  -0.0546314
   0.5814886   0.6842978   0.5601925  -0.2244219  -0.0056386  -0.0197668
  -0.3614427   0.0328431   0.3906492   0.8542803   0.7492313   1.9860785
   0.2114461   0.0979275   0.2451149  -0.3179231  -0.0560451   0.2547267
  -0.2768995  -0.0229208   0.1383569  -1.4659679  -0.9541976   0.3946612
   0.0703937  -0.3741594  -0.1868371   0.9645231   1.4599047   0.1662796
  -0.1148691  -0.1405724  -0.1831680   0.9011966   0.8386992  -1.6108919
  -0.3247374  -0.0025888   0.0779636  -0.3193846   0.5685091  -0.0309299
  -0.6206835   0.3947675  -0.5262242  -0.2075285   0.0317215   0.3050416
  -0.1910578   0.1493846   0.0654733  -0.2391593  -1.5889935   1.1157658
  -0.4943001  -0.2164502  -0.4704721  -0.4544371  -0.2315828  -0.2649140
   0.0144088   0.5917446   0.1110985   0.1690071   0.0531127   0.0753032
  -0.0023321  -0.0879837   0.2194816   0.3609902  -0.0537873  -1.1207901
  -0.0915570  -0.2787324   0.2235175  -0.2569242  -0.0456996   0.3017549
  -0.7835929  -0.4428385   0.0256209   0.0532376   0.2699002  -0.3249758
  -0.0687057  -0.0760254   0.0302764   0.1898665   0.2520271  -0.0134589
   0.2436854  -0.3340203  -0.0336747   0.1293236   0.9912001   0.1558885
  -1.8284533  -0.3256681   0.2977278  -0.0728613   0.4018483   0.1946195
   0.0959833  -0.0942356   0.2004509  -1.2580129  -0.0732314  -1.0577548
   0.1448815  -0.3471186  -0.0150371   0.0834649  -0.0032438   0.1077714
   0.0621454   0.2014437  -0.0574356   1.8821743   0.1466635   0.7997726
   0.2166431  -0.2725265  -0.2749026  -0.4049116   0.4769109   0.1820448
  -0.0580027   0.2311096   0.1500148   0.7994494  -0.5164348   0.9287858
   0.1598484  -0.0121924  -0.0273664  -0.2192407  -0.0983331   0.1023768
   0.4752815   0.2075408   0.1409985   0.3715748  -0.1653319   0.1880705
  -0.0380712   0.0309484  -0.0509129  -0.0074703  -0.2515165   0.3394894
  -0.6436026   0.2858885   1.1335230  -2.4227558   0.9524693   0.3833052
   0.1143079  -0.0225283  -0.1071276   0.6196232   0.6122307   0.3173499
   0.0629192   0.1130197   0.1272363   0.2613467  -0.0588860  -0.1705801
   0.8404575   0.6156887  -0.0100195   0.2372135   0.2406931   0.1453839
   0.3112038   0.2465413   0.2107738  -0.6680471  -0.3130887   0.2605661
  -0.0882691  -0.0246847   0.1467950   0.0961483   0.2156829  -0.2026287
   0.0028100   0.2456239  -0.4036948  -0.0211750  -0.0617447   0.1174708
  -0.7602881   0.2258503   0.5330054  -0.0193068   0.1861424  -0.2885069
  -0.2394091  -0.1217735   0.0526655   0.1995644   0.1294824   0.4689556
  -0.1786349  -0.5327015  -0.7887525   0.3805680   0.1767572   0.0271161
  -0.1931798   0.3725287   0.1100346  -0.3276382   0.1529036  -0.0612151
  -0.5856291  -0.2549540   1.9982007   0.2092363  -0.1892259  -0.0181133
  -0.0741082  -0.7729870   1.1488221   0.3842622  -0.1554674   0.1458945
  -0.4848262  -0.5728844  -0.9751471  -0.1742205  -0.1117713  -0.1955175
   0.1032010  -0.2178416   0.2992062   0.1186735   0.2488073   0.0692944
  -0.3492711  -0.2726690   0.1215890  -0.0231941  -0.3100123  -0.0155604
  -0.2935782  -0.1059758   0.0119193  -0.4617581   0.6669361  -0.2734099
  -0.9871393  -0.0606486  -0.4083939  -0.1967594  -0.0095780   0.0185067
   1.9206578  -0.7687660  -0.2803348   0.4256307   0.2238939  -0.0559672
  -0.4731943   0.5814284  -0.0599033  -1.1455559  -0.0298044  -1.3393011
  -0.2196391  -0.1019101  -0.2130751  -0.1072873  -0.0751985   0.0567438
   1.6748421   0.2551291   0.0946204  -0.0627597   0.1995069  -0.1851519
   0.3327008  -0.2812680  -0.2024899  -0.2272691  -0.1751317   0.4251422
   0.2388466  -0.0536724  -0.0042371  -0.9263184  -0.3790085  -1.2177433
  -0.0424371  -0.4043413  -0.0050930   0.0654200   0.1255766  -0.0477845
   0.0492759  -0.4474718  -0.2131609   0.0041602   0.3551702   0.6430092
   0.2983485  -0.2893984  -0.0391661  -0.0660786   0.4247534  -0.2430265
   0.1557701   0.2155082  -0.1409508   0.0012555   0.8172180  -0.5355962
  -0.3386295  -0.4535634   0.0277272   1.1795267  -0.7904770  -0.7312856
  -0.0079155   0.1531824  -0.2832875  -2.2932517  -0.4180079  -1.0214688
  -0.2297159   0.0831092   0.3252571  -0.1870879   0.1522356   0.0975678
  -0.1639407  -0.1390120  -0.2028516  -0.4605681  -0.0012030   0.5042064
   0.1903667   0.1395899   0.0202686  -0.0272715  -0.1635759   0.2027584
  -0.7743490   1.2886085   0.0692822  -0.6340007   0.3207793  -0.1196447
   0.2066305  -0.1249485  -0.1227315   0.0902881  -0.7842020  -0.3366716
  -0.0356049  -0.3397798  -0.1732919  -0.0633343   0.0072699   0.0880865
  -0.0075982   0.0179796  -0.1735065  -0.1870780   0.3358294  -0.1486406
  -0.0905454  -0.2482574  -0.6268999   0.9036094   1.8455764  -0.9002260
   0.1510517   0.3168435  -0.1400806   0.1298662   0.1153318  -0.1396212
  -0.2299995   0.0076627  -0.3990962   0.2361415   0.0529966  -0.2477245
   0.1874042  -0.2708500   0.1805261  -0.0001977   0.3861699   0.0457495
  -0.3052160   0.3824949   0.1903355  -0.2599111  -0.1909386  -0.5246809
   1.0500085  -0.1044954  -0.3700461  -0.3178281  -0.0177832   0.1147818
  -0.1770606   0.0762325  -0.0016906  -0.1428027   0.1759666  -0.3547927
  -1.0814428  -0.1910112   1.0602235   0.1973910   0.0619686   0.0337009
  -0.7836851  -0.6059883   0.0578994  -0.1639157   0.1522369  -0.0240156
   0.1389654   0.2617760   1.0382338   0.2855548  -0.1200699  -0.0769347
   0.0310940  -0.0194961   0.0196600  -0.1568169   0.1444368  -0.1890475
   0.2075364   0.0283716   0.0218942  -0.1433482  -0.2915334  -0.0448951
   0.0932135  -0.3483358   0.1659160   0.1502786   0.8323058  -0.6202460
   0.6231735   0.1330535  -0.1150306  -0.3291661  -0.4287623   0.1859483
   0.6441594  -0.8338426  -0.5233350  -0.1676835   0.2687365   0.1393801
   0.0535906  -0.2032887  -0.1606153  -0.3602019   0.7334835   0.8115500
   0.1574884  -0.2666216  -0.2813508  -0.3222267  -0.0926137   0.2935045
   0.0257005   0.8394136   0.2233323  -0.2334387  -0.1278036   0.1018008
   0.3703550   0.2912739   0.0105029   0.1306096  -0.0054141   0.5309015
   0.2955426   0.1087002  -0.1845936  -0.3549857   0.3686788   0.8614231
  -0.3700329   0.8120628  -0.8932749  -0.2875098   0.5203475  -0.0062853
   0.1414414   0.0527897   0.1788267   1.0237532  -0.2727360   0.8927170
   0.3433534  -0.1619934  -0.0179659   0.2660121   0.2861814   0.0742578
   0.1954160   0.0237359   0.0134598  -0.1354447  -0.5832848  -0.1650076
  -0.1263980   0.2459745   0.2997154   0.3825958   0.9584835  -0.0366951
   0.0471999  -0.0646505  -0.4108190   0.2746704   0.1779958  -0.0248331
   0.0107247  -0.0561280  -0.0690561  -0.1788421   0.0611348   0.0564386
  -0.2810036   0.0961335   0.2301518   0.3987610   0.2012537  -0.3142702
   0.1281269  -0.0026819  -0.1808197   0.1268111  -0.2060466  -0.0483149
   0.9511269  -0.1995913  -0.9377252  -0.1345463  -1.3768065   0.9812911
  -0.3049873   0.1485054  -0.1611162  -1.7849195  -0.1457333  -0.6393978
  -0.2452895   0.2406493  -0.0628342  -0.3046504   0.0151202  -0.0285498
   0.4136296   0.3996329  -0.5423472  -0.0076068  -0.3803774   0.2269362
  -0.4407327  -0.3672127  -0.4033974   0.4616235  -0.8531316   0.6338600
   0.3857694   0.0857350   0.2516642   0.0356098   0.0463046   0.1742984
  -0.1588203  -0.1547596  -0.0671496  -0.1149740   0.1529758   0.1115131
  -0.2773762   0.7811640  -0.5395431  -0.3805302   0.9084506   0.8080757
   0.2791329   0.1862787   0.1987730  -0.0684544   0.0924848  -0.3187944
   0.6145655  -0.3452024   2.5603863  -0.1389554   0.4208344   0.0070428
  -0.1285412   0.0873999   0.2085004  -0.3777361  -0.2628325  -0.3595107
  -1.0090466  -0.9808603   0.6618543   0.2021412   0.1697778   0.4414456
  -0.9963855  -1.1239309  -0.0141782  -0.2361497  -0.2251281   0.1113478
   0.2244770   0.7568121   0.1556036   0.0165783   0.0149978  -0.1709570
  -0.2442077  -0.1011597  -0.0649715  -0.4636580   0.1314292  -0.1596767
  -0.1386192   0.0698893   0.1521139   0.1059025  -0.2142098   0.0797226
  -0.2869967  -0.2534936   0.1100186  -1.0339667  -0.5436215  -0.6299008
  -1.7885300   0.7322863   0.3018863  -0.0605280   0.2436222  -0.2332647
   0.0989527   1.0061106  -0.3165494   0.1453372  -0.1038761   0.2316045
  -0.0501445   0.0719090   0.1370390   0.4112392   1.2773144   0.7552139
  -0.3890202  -0.0138042  -0.4384953   0.2371373  -0.1688627  -0.0026111
   1.0013187  -0.9779482   0.3215221   0.0002320  -0.0989508   0.3772158
  -0.4327141   0.1626811   0.0101341   0.0102576  -0.1383992   0.2522665
   0.1223381  -0.2299826  -0.0668180  -0.6801240  -0.3936448  -0.2223602
   0.0532469   1.2657786   0.2218938  -0.0942020  -0.1996736   0.0896352
  -0.3334695   0.0743190  -0.2035009   0.0512509   0.7364826   0.5641883
  -0.2515391   0.2359009  -0.2944774  -0.0185183  -0.2424903   0.1627696
   0.0187879   0.1353755  -0.0199360  -0.0087858  -0.1620506   0.3885479
   0.1372741  -0.5913656  -0.4835318  -0.7943745   0.8321595  -1.5416363
  -0.1070863  -0.1676906  -0.2877214  -0.6516376  -0.0364780   0.0327681
   0.1728599  -0.0482890  -0.0553151  -0.6842008   0.7235087  -0.1263586
  -0.0612064  -0.3359136  -0.0512474  -0.0152759  -0.0505294  -0.0205911
  -0.0888703  -0.0141896   0.0694294  -0.2039320   0.2569858  -0.0691828
  -0.0760089  -0.1148097   0.0421330   0.1141206   0.0553806  -0.1011484
  -0.0042843  -0.1384371   0.2521429   0.1613911   0.0851123  -0.0265167
   0.1150911   0.0795502  -0.0051138   0.0032429  -0.0646484   0.0604372
  -0.1189341  -0.0034435  -0.2204110   0.1167547   0.0608042   0.0526993
   0.0716652   0.1756977  -0.1110726  -0.1439537  -0.0310116   0.1374284
  -0.0858427   0.2205440   0.0024908   0.0254315   0.0060089  -0.0242195
   0.0486054   0.0085970   0.0459886  -0.0103641  -0.0579487  -0.0120024
  -0.0466964   0.0108765  -0.0025664  -0.1634559   0.0178304  -0.1809013
   0.0219128   0.0550257   0.0516468  -0.1770206   0.1372761   0.2461426
  -0.0507794   0.0757953  -0.1902925   0.1759542   0.0190359   0.0036053
   0.0807052   0.1490645   0.0647389   0.0186209  -0.2879215   0.0573082
  -0.0276776   0.2134447   0.0735957  -0.1667728  -0.0643439  -0.0142393
   0.0907955  -0.4534238  -0.0586228  -0.0978149   0.0934790   0.2609697
  -0.3090263  -0.2411049   0.0043914   0.0146778   0.0003263  -0.0943742
   0.1834889   0.0703069  -0.1382723   0.0589878   0.1013816  -0.1486726
  -0.1956608  -0.1821111  -0.3160350  -0.3511828   0.1294617   0.1421551
   0.1930155   0.1340154  -0.1051876   0.0643523  -0.2124894   0.1069343
   0.0853741   0.0464142  -0.0998598  -0.0776664   0.1515701  -0.0709045
  -0.0530170   0.1417616  -0.1690420  -0.1739970   0.0705462   0.3807885
   0.3981141  -0.1995340  -0.1836105   0.0353855  -0.1600318  -0.0388407
   0.0941915  -0.1113908   0.0192413  -0.1395397  -0.1583829  -0.2746641
   0.2219422   0.0630487  -0.0600113  -0.2320831  -0.1036274  -0.0223000
   0.0096268   0.1625944  -0.0599821  -0.0147186   0.1057215  -0.1025547
  -0.2860342  -0.3439838  -0.0562498  -0.2467640  -0.0789005   0.1411981
   0.0958889  -0.3153062   0.1055360   0.0564116  -0.0200125   0.1325835
  -0.2756759  -0.1372936  -0.1588905  -0.0707092   0.0202036   0.1363390
   0.1423076  -0.0362120  -0.0006170  -0.1429211  -0.3893135   0.2213968
   0.2682746   0.0692350   0.1085120  -0.3608268   0.3187427  -0.1570724
  -0.2282692   0.1175787  -0.0637674  -1.4270062  -1.0386348   1.3157039
   0.6528905   1.8883447   0.6844389  -0.3525484  -0.0474998  -0.0764022
  -0.6877966  -0.8529706  -0.5507406   0.5882325  -1.2412395  -0.8797199
  -0.2102037   0.0397257   0.0995242   0.3567799   1.2525716   1.2439887
  -0.0151160   1.1149814   0.6980205   0.1215267   0.0109484  -0.1117592
   0.8818996   0.6581284   0.5906132  -1.5465506   0.9419947  -0.6310078
   0.2111068   0.3100185   0.1411255   1.2380222  -0.2356116  -1.1454753
  -1.1416831  -1.1004543  -0.0145927  -0.3058474  -0.0988794   0.0468555
  -0.1898558   0.9706811  -0.0137347   0.4626459   0.0630557   1.0438816
  -0.2721410   0.1576392   0.0462328   0.9055531  -0.3042425   1.6437504
   0.6233655  -0.2636604  -0.6307829   0.0888780   0.1694611  -0.2669467
  -0.3449982   1.5688776  -0.8843239   0.7935323  -0.4051843  -0.2700293
   0.3091503   0.1188767   0.0594296   0.8527202  -0.3119235   0.2710787
   1.3922718  -0.6026411  -0.6439237  -0.1647269  -0.1581037   0.0069003
  -0.2874164  -0.4756924  -0.2574372  -0.5346351   1.3190365  -0.3335417
   0.1068045  -0.0601825   0.0992817  -0.1372329   0.0043227   0.2551463
  -0.0426132   0.6031162   0.3967331   0.1631542  -0.2668565   0.2115519
  -0.4694886  -0.3775208   0.0905914   1.4293284  -0.6670613   0.6147825
   0.1847171   0.1173613   0.2450581   0.4375531  -0.0249467   0.2014734
  -0.9555630  -0.8848584   1.0969107   0.1392902   0.1182880   0.0695795
  -0.5055951   0.2193248  -0.9536201   0.4210951   0.6921168   0.5169317
  -0.2730225  -0.0511272  -0.1657445  -0.9562585  -0.2981438  -0.8282958
  -1.1903107   0.1002771   0.3773609   0.2580841  -0.3370354  -0.1966529
   0.3492769   1.0410712  -0.4880937  -0.1077030   0.2768963  -0.0406773
  -0.0437046  -0.1203058   0.1181571   0.6224384  -0.3963906   0.0767291
  -0.2364943   0.1523152  -1.9598391   0.1019804   0.1326380  -0.0813984
   0.6093770  -0.6097301  -1.1452035  -1.1439276  -0.3247925  -0.1589244
  -0.1608113  -0.0619249   0.0360727   0.6039539  -0.2387335  -0.2273380
  -0.3373228   0.4236356  -0.8200889  -0.0680700   0.1452901  -0.2605915
  -0.4496710   0.2672368  -0.0059513  -1.5127069   0.6382690  -0.2398527
  -0.0181921  -0.0217232   0.1516557  -0.2808984   0.3074023   0.2248649
  -0.4159641  -0.2100938  -0.7520133   0.3820481   0.2508441   0.1557893
   1.5021111  -0.1382824  -1.2005486   0.0318738   0.2037065  -0.5997429
   0.2233982  -0.4903261   0.2315133   0.1894982   1.9550987  -0.0125201
  -0.7976272   0.8467552   0.3318267   0.2290429   0.0728422   0.0558925
  -0.4793887  -0.5552443   0.4588067   0.1782576   0.5033559   1.3173756
  -0.0738630  -0.1968382   0.0102164  -0.5079699  -0.7130993  -0.1101431
   1.2213068  -0.8924536   0.2189390   0.1031896  -0.5722561   0.3755938
  -0.4994704   0.5564462   1.0017822  -0.1902963  -0.1640011  -0.6259781
  -0.0725316  -0.0296460  -0.2750524  -0.8792462   0.2096280   1.7232798
   0.0767114  -0.1103566  -0.3420854  -0.1156213  -0.2192597  -0.0502443
  -0.1777451  -0.4633502   1.9254660   0.2176099  -0.1551063  -1.0796709
   0.1105392   0.0566527  -0.0966616   0.6282345  -0.5617461  -0.4807659
  -1.2257131   0.0289946  -0.1966751  -0.2126597  -0.3531168   0.3295287
   0.1733140  -0.3427234  -2.2520313   0.9611850  -0.3255882  -1.1340939
   0.1441554  -0.0965016   0.0588642   0.0704945   0.0566110   0.5371482
  -0.7304889   0.9944198  -0.0154032   0.2959394  -0.1065603  -0.0005304
   0.6555158  -0.5991189  -0.4379039  -0.4365364  -0.8967865  -0.2575574
  -0.2293165  -0.0860190   0.4752745   0.0578790  -1.3639961   0.6338947
  -0.5538888   0.2081494   0.7641253  -0.0380395  -0.0724355  -0.0926420
  -0.0218993   1.0767554  -0.4579267   0.5455663   0.7446517  -0.3118760
  -0.0969827  -0.0087915   0.0693557  -0.6506581   0.6214871   0.6791235
   0.2459306   0.6977555  -0.8436007  -0.3877257  -0.1418698  -0.2093137
  -0.3843709  -0.1735642  -1.0692638   0.1675045   1.5313642   0.0314442
   0.0861309  -0.2883706  -0.0025472  -1.0404966  -0.3252834   0.9490544
   0.6760756   0.5720039  -0.7509355   0.1980798  -0.1052985   0.0671901
   0.2953744  -0.6575453   0.6443304   0.9545174   1.0428989  -0.4922181
  -0.1015653   0.2865015   0.0179160   0.0872815   1.1186005  -0.5912740
   0.8724084  -0.2628487   1.2243308   0.0919195   0.0249078   0.0467827
   0.3900479   0.1101948  -0.7549850  -0.2718337  -0.6439714   1.4959122
  -0.0629902  -0.5349434  -0.2537084  -0.1712181  -0.1545968   0.2189285
   0.4696423   0.0128772  -1.1785475   0.0016680  -0.2017396  -0.2155658
  -0.9332630  -1.8364517  -0.8744501  -0.7338856   0.5098843  -0.4486710
  -0.3721209   0.1295020  -0.3105713   1.1997568   0.5396539  -1.1941298
  -0.1936514  -0.0432279  -1.1216919  -0.0312723   0.1010374  -0.2548754
   0.9233937  -0.0821068   0.2862425   0.0368303   0.7776351   0.3141133
  -0.0323804  -0.0502542   0.1007495  -1.1785225  -0.0206653   0.0093781
   0.8096357   0.1479894  -0.1734074   0.0026827  -0.1389367   0.0657742
   0.2069980  -0.1079481   0.9471967   0.1942314  -0.7242103  -0.6588081
   0.2076900   0.2639557  -0.0475566   0.4030223   0.1600685  -0.3972320
  -0.7960434   0.7550846   1.3272072   0.1515923   0.3054452  -0.1195944
  -0.4802430   0.3488079  -0.9110600  -0.7752981  -0.3698904  -0.5702626
   0.0933596  -0.1815150   0.0055540  -0.4901530  -1.8943999   0.3219849
  -0.7867403  -0.2704468  -0.6691474  -0.2309561  -0.0640427  -0.1694304
  -0.3942090   0.7970037   0.4846085   1.2816755  -0.8673228  -0.4177135
   0.2572397  -0.0633655   0.0551359  -1.0900845  -0.7339411   0.6159333
  -1.2084756   0.3083925  -0.1479533   0.1586770   0.1736139   0.0016625
  -0.0454970   1.0948871   0.9303947  -0.8465592  -0.6051185  -1.5501398
  -0.3097737   0.1493010   0.0041188   0.8168162  -0.4844263  -0.4183503
  -1.6953861  -0.2671524   0.1183685  -0.0957979  -0.1385105  -0.0403167
  -0.1855334   0.5316468   1.1408304   0.1297996   0.2235950  -1.2901679
  -0.1746585   0.1311462   0.4545870  -0.8130697   0.3597977  -1.5539143
   0.7550536   0.5318601  -0.3498220  -0.1811785   0.1181385  -0.0040682
   1.1157066   1.1512604   0.4355730   0.4194070   0.1877147  -0.1093687
   0.2376060   0.0842296   0.1471696   0.5101726  -0.1807651   0.0423501
  -0.9834569   1.0285772   0.2181615  -0.1109296   0.3014752   0.1014097
  -0.7412802   0.5013069  -0.7982714  -0.3407373  -0.1421823  -0.6571559
   0.0585920  -0.0382275   0.1260067  -1.2525082  -1.2467327   0.4627882
  -1.4754592   0.3946197   0.0483397  -0.0195254   0.0272158   0.0164689
  -0.9212748  -0.8806664   0.3034514   0.3796735   0.2915636   0.3398865
  -0.1819550   0.1458960  -0.0754411   0.5632892   0.3194269  -0.0002709
  -1.8088554   0.4491153  -0.7499784  -0.3670404   0.0721941   0.0701388
   0.3824168  -0.8710785  -0.1766907   0.4714300   0.6874863   0.5021451
   0.2294937   0.2111585  -0.2955410   0.4824410  -0.1461616   0.6363989
  -0.3885426   0.0431654   1.4059756   0.0331268   0.0885992   0.0577251
   0.5627967   0.2928077  -0.0987365   0.1953869  -0.2254365   0.3641349
   0.1752708  -0.0436250   0.0230769   0.7161614   0.7154467   0.4701532
   0.4707320  -0.9334471   0.0217306   0.2532595  -0.5513665  -0.0897527
   0.1319933   0.6436376  -0.8255880  -0.0479613   0.7832963  -0.7255440
   0.2896345  -0.0269816  -0.1140054  -1.8029476  -0.1456162  -0.9228066
  -0.4146531   0.6115361  -1.4464027   0.1075152  -0.0690414   0.0953478
  -0.7567297  -0.1646986  -0.0984936  -0.5660972  -0.0190449   0.6108965
   0.1403558   0.1506914   0.1064604  -0.1793225  -0.5927744   0.9294409
  -1.0496944   0.8564396  -0.5073882  -0.2462344   0.0328799   0.0163941
  -0.0664950  -0.6226855  -0.1747466   0.6598996   0.4511101  -0.2423650
   0.2900217   0.3367294  -0.1014822  -0.1694597   0.5769114   0.1332860
   0.3896955   0.1931556   0.9471065   0.1939597  -0.0852826   0.0619957
  -0.5256014  -0.9015220   0.4397176  -0.3996867   0.3766482  -0.2740684
   0.1566721   0.1334057  -0.0070729   0.4869207  -1.0291047   1.1441907
   0.0408605  -1.2015404   0.7648972   0.0811954   0.2817708   0.3043124
   0.5288459   0.5854466  -0.3015257   0.9240964   0.7917437  -0.8829673
   0.0558633  -0.0872860   0.0852432   0.2030838   1.6866966  -1.7300941
  -1.2058390  -0.0634279  -0.7011912   0.1077748  -0.1358250  -0.0924126
  -0.9349042   0.4840786  -1.1299894  -1.1866247  -0.4717065  -1.0198122
   0.1954782   0.1487694   0.1387802  -0.2359938  -0.4861866   0.8539917
  -0.0792378  -0.1119840  -1.5790052  -0.0075276   0.2478115   0.1660050
   0.5571107   0.0663255  -0.8852057  -0.6130903  -0.1227396  -0.4546025
  -0.1097631   0.0387518   0.0024498   0.8316967  -0.7483190  -0.7992019
   0.2923313  -0.0555361  -0.1657446   0.2067154   0.1138712  -0.1572228
   0.1258575  -0.7261660  -0.0279785   0.3378923  -0.0252412   0.9542740
  -0.0256685   0.2470004  -0.1771411   0.2708266   1.1890491   0.3381925
   0.9503412  -0.8133004   0.1693218   0.3432577  -0.0166476  -0.1215759
  -0.2922046   0.3462060   0.7856650  -0.7320816   0.6190278   0.8362180
   0.2621801   0.0032654   0.1211099   0.5935000  -1.5161194   0.6341872
  -0.2508824  -0.6070643  -1.0399181  -0.2275907   0.0490817  -0.1927354
  -0.5856595  -0.2942327  -0.0100763  -0.2836762  -1.1387149   0.2972156
   0.0331337   0.0389402   0.2091093   0.1415165  -0.4597364   0.4255187
  -0.9633310  -0.0936217  -0.0731384   0.3880382   0.3319817  -0.0842593
  -0.7289740   0.8797121   0.0354481   0.2865691   0.0726519   0.4081634
  -0.1330617  -0.2240913  -0.0756297   0.4331883   0.3845451   1.1382854
  -0.2106737  -0.0143656   0.8769939  -0.3584141   0.2696897  -0.2431443
  -0.0906277  -0.2523653   0.9821999  -0.2276396   0.2662641   0.9088564
  -0.1906345  -0.0890145   0.0741165  -1.4047277  -0.4044210   0.0190656
   0.1792151  -1.1781554  -0.7834178   0.6168276   0.0633613   0.3399462
  -0.6444991   0.0465091   0.1917218  -0.2361767  -0.2682060   0.6813903
  -0.0433451   0.2181172   0.0760105  -0.3932944  -0.7266139   1.8259674
  -0.0127910   0.1772327  -1.1128256   0.2264432   0.1774664  -0.1524684
   0.2310234  -0.3406740   0.0439017  -0.3559121  -1.1821549  -0.4274309
  -0.5667608   0.3358900   0.2893094  -0.7742026  -1.4504015   0.4086784
  -1.4950314  -0.3715835   1.2324733  -0.1061404   0.0318606   0.0607814
  -0.5837516  -1.0056171   1.8628467   0.4684847   0.1004182   0.3962170
   0.2440493   0.2889561  -0.0639940  -0.8176287   1.9192322  -1.0355047
  -0.7370210  -0.3059076  -0.7304327  -0.2036089  -0.0552913   0.0506995
   0.5143704  -0.1033839   0.3042427   0.4574294   0.1880049   0.1632951
  -0.1685089  -0.0506761   0.4678806   0.8312877   0.5878901  -0.3076376
   0.6285313  -0.2830433  -0.6883202  -0.1243385   0.1253550   0.1908058
  -0.8865679  -0.3392155  -0.1194684  -0.5284713   0.6171040   0.1169782
   0.1276935  -0.3640420  -0.2851693  -0.9890284  -0.3146255  -0.3436456
  -0.6491359  -0.2876951  -0.9459702  -0.0733371  -0.1690728   0.2283986
   0.5837972  -1.1971942   0.5242083  -0.6061531  -0.4159988   0.2613947
  -0.4414776   0.2833428   0.5245960   0.0501969   0.0330612  -0.3703412
   0.9323482   0.2582064  -0.4073430   0.2622672  -0.0223162  -0.2260410
  -0.9993626   0.1244878   0.1751061  -0.8133299  -0.2880438   0.5609627
  -0.0998090  -0.0153937  -0.0226879  -0.3484617   0.2324727  -1.8881988
   0.3578692  -0.3490883  -1.4851112   0.0742914  -0.1536347   0.0172973
  -0.0930268   0.5745606  -0.1276117   0.2426097   0.7427027   0.0733069
   0.0747695   0.3311057  -0.0684436   0.7984612   0.4116301  -0.2713368
  -0.1028603  -2.0558921  -1.0741132   0.3069843  -0.0623025   0.2044405
  -0.4019615   0.0329558   1.3658729   0.3781722  -0.3967092  -0.5361864
  -0.2931068   0.2043668  -0.1374167   0.5797629  -0.3483709   0.7194352
   0.0034196   0.6059187   0.8911316  -0.0603474   0.4066953  -0.3177495
  -0.2395636   0.4306323  -0.8802933  -0.0430983   0.1922261  -0.2615332
  -0.2851848   0.0465130   0.0312675   0.0466348  -0.8066508  -1.5889782
   0.4863904  -0.6783948   0.6377865  -0.1072876   0.1786499   0.1482884
  -0.9497349   0.2182193   0.3557136   0.1589313   0.7673227   0.3318766
  -0.1214669   0.0816101  -0.2249757   0.4885513   0.7960444  -0.0303218
  -0.6295757  -1.1662676  -0.1729652  -0.1379946   0.0154394  -0.0173246
  -0.2329017  -2.1231400  -0.0767908   1.6676521   0.0538013  -1.0891339
  -0.0492745  -0.0227640   0.1280537  -0.6968756   0.7332388  -0.3426272
   1.6191296   0.5936552   0.4794073  -0.0264445  -0.1366681  -0.1303385
   0.4074953  -0.2198543  -2.2481251  -0.7124725  -0.2842531  -0.2995048
   0.0851981   0.2043831   0.1384420  -0.7911608  -1.5423663  -0.3442194
  -0.6676049   0.0856084  -0.9645088   0.1366394  -0.1260781  -0.0073443
  -1.2978738   1.1512019  -0.0132352  -0.4383989   0.3796402  -0.3154568
   0.0822148   0.1973415   0.1619701  -0.6051030   0.1769716   1.4405394
   0.2926565  -0.2928772   0.1718145   0.2131268  -0.0727315  -0.1393926
   0.3239832   0.6295532   1.4971625   0.4289604  -0.7481404  -0.4370140
   0.0642077   0.0780612   0.3644844  -0.4710823  -0.1985859  -0.6121192
  -0.1121816   0.6940705   0.3519021  -0.1436118  -0.3445805  -0.0337255
  -0.4496677   0.0197311  -1.4496763   0.8769609   0.5338171   1.7645577
  -0.3065222  -0.0592811  -0.0745679  -0.4070196  -0.3447441   0.8125280
  -0.4563215   0.3246045   0.1359052   0.0986788  -0.2684281   0.0474439
   0.4190726  -0.1025106   0.2089552  -1.0749704  -0.9868533  -0.1342322
  -0.1074971   0.0596337   0.1765884  -1.0317699  -0.1123293  -0.4611090
   1.0530618  -0.5791216  -0.1719378  -0.1087262  -0.2054036  -0.0455495
  -0.1948560  -0.3581726  -0.2573970  -0.4195874  -0.1553919   0.0893077
   0.0527866   0.0426683   0.2156892  -0.7721978   0.8294624  -0.0897207
  -0.0426543   0.0758508   0.8533553   0.4519839   0.2188177  -0.2251260
   1.4272242   0.6664556  -0.8356406  -1.3264610   0.6394273  -0.4949240
  -0.1919438  -0.2943557  -0.1410307   1.2760625  -0.6109284  -0.1747925
  -0.1632985   1.1180166  -0.1287555  -0.3255000  -0.1561134  -0.1923760
  -0.0570405   0.0303637   0.1228489   0.0574359  -0.3932208  -0.0026909
   0.0608360  -0.2775858  -0.0380098  -0.0260529   0.4756390  -0.4728652
  -0.0549324   1.5373001  -2.2584774   0.0555834   0.0619868  -0.1244137
   0.3754867   0.4753147  -1.3624278   0.8130285  -0.9122807  -0.4746182
   0.0742213  -0.2429557  -0.0441765  -0.3114694  -1.4895530  -1.6875928
   1.4611464  -0.2820223   0.6481866   0.1395156   0.3269645   0.1029946
  -0.1678865   0.1685583   0.5282977  -0.8718558  -0.7344548  -0.3518197
   0.2468844  -0.3334081   0.0243116   0.2294430  -0.9761593   0.1097978
  -0.0752719  -0.3227083  -0.3721784  -0.1763842  -0.0065857  -0.0545825
  -0.0768466   0.0496894  -1.0475350  -0.5586221   0.3731619   0.4909816
  -0.0849898  -0.0841001  -0.0912523   0.7816141  -0.9595810  -0.0369128
  -0.2105841  -0.5876806  -0.2323280   0.1481652   0.0793033  -0.0217370
  -1.5333386  -0.4874972   0.5197012   1.5924653   0.5460278   0.2768637
   0.3861053   0.1771157   0.0902115   0.7786259  -0.2234124   0.3939319
   0.3153416  -0.2676840   0.0417212   0.0541991  -0.1674426  -0.0012046
   0.5814829   0.8665293   0.0405298  -0.3667823  -0.3820475   0.3029469
  -0.1831194   0.1360679   0.1850313  -0.4457524   0.2882426   0.0455829
   0.3385434  -0.3523514   0.3540188  -0.1724274   0.3923689  -0.2219336
   0.7008697  -0.1673205   0.1951807   0.8094805   0.5539409  -1.1632011
   0.0510465  -0.0221722   0.0694211  -0.9817733   0.7797860  -0.5865132
   0.2008796   0.3373846  -0.5291469  -0.2391264  -0.0669745   0.0234852
  -0.9838577  -0.5756715   1.1337675  -0.6056156  -0.2491966   0.1409662
  -0.0985014  -0.1450672  -0.0279730   0.7985057   0.1602063   0.4321456
   0.6991049   0.2913776   0.4380135   0.0070690   0.1910817   0.3350989
  -0.0643855   1.0279135  -0.5405683  -0.0729599   0.8937791   0.0972418
  -0.0300070  -0.2921863  -0.2426219  -0.1103289  -1.3306476   0.9430954
  -0.2153453   0.2399556  -0.5412363  -0.2431492  -0.1513127  -0.0154486
  -0.3789115  -0.5251417  -0.0466833   0.0633823   0.4567576  -0.2941489
  -0.2978747  -0.0441807   0.1061229   0.6666210  -1.6952079  -0.7402888
  -0.9256206  -0.3999155   0.7970403   0.4272093  -0.1255999   0.0655389
   0.0837477  -0.2708123  -0.9322428  -1.0179949  -0.1428192  -0.2042315
  -0.0831919  -0.2082107   0.0566351   0.8318442  -0.9267244   0.2568767
  -1.3903820   1.0002483  -0.1404857  -0.0771028   0.0874454   0.1532077
   0.1636519   0.3286075   1.0379554  -0.7223830  -0.1330160  -0.6811165
  -0.1506702   0.3295148   0.0868380  -0.4554550   1.2333006  -0.2211108
   0.0128417  -1.4109045   0.6791209  -0.1594252   0.2539128   0.1932312
  -0.3924458   0.1309237  -0.3290209   1.6518261   0.9610603  -0.6613699
  -0.0766802   0.3890794  -0.1188516   0.5399138  -1.0401722   0.5131074
   0.0359999  -0.1886696  -0.8868714   0.1140264   0.1750949   0.0034703
  -0.9716466  -0.0304424  -0.0437980  -0.5408859  -0.9701229  -0.1399720
   0.0612844   0.1877444  -0.0925413  -0.7430591  -0.5622540   0.5614519
   0.7344097  -0.1770715   1.2670502   0.0175538  -0.1413698   0.0580939
   1.0115984  -0.3386168   0.4098148   0.9429424  -0.5105275  -0.3486222
  -0.1702399  -0.0041272  -0.1334220   0.7562225  -1.0790102  -0.9982466
  -1.2216790   0.2559651  -0.3649502   0.2198664   0.1881250  -0.0037748
  -0.5442168  -0.7573393  -0.4970494  -0.0676671   0.5720462   1.1654452
  -0.0949006   0.0306810   0.1350497  -1.1682657   0.2143373   0.4567651
   0.8084946   0.8827298  -0.4965968   0.2106075  -0.0583623  -0.3140570
  -0.4003187  -0.8744021  -0.0542173   0.6060247  -0.5005011   0.3955030
   0.1789178  -0.2751271   0.0563169  -0.2885015  -1.7481994  -0.0771637
   0.3450259   0.6921308  -0.5703318  -0.0971179   0.2511819   0.2061162
  -0.2552512  -0.2707273  -0.3339930  -0.7820650   1.7451953   0.4199773
  -0.1309626  -0.0501551  -0.0845645  -0.6863538   0.7417376   1.5059709
   1.0038321   1.1248589   0.0390146  -0.3770307  -0.1437515   0.1129646
  -0.1037084  -1.1992743   0.8756720  -0.0589057   0.4995687  -1.4207654
   0.3625606   0.0934056   0.2153804   0.4131218   0.3074477   0.0050457
   0.1506361   0.0297136   0.0921466  -0.1652956  -0.2888771   0.3832060
  -1.1575125  -0.0472005   0.6799456   1.7813732   0.1893455   0.6501161
  -0.2146504   0.0987055  -0.0836686   0.8848952   0.0493033   1.1133893
  -0.5242142   0.6929762   0.5458095   0.1882078   0.0368805  -0.2456047
  -0.1512020  -0.1612201  -0.7780344   0.9412548  -0.3626518  -0.6286728
   0.1692125   0.0391149   0.2954745   0.4026674   0.0461299  -0.4862231
  -0.2009855  -1.1247142   0.9801029   0.0157613   0.1599913  -0.1881254
  -0.1236269   0.4907535   0.5296234   0.1009373  -0.2650762  -0.8618060
   0.3014151   0.6360705   0.0102312  -0.1974344  -1.4540746   0.4650232
   0.0659720   0.1192608  -0.8009768   0.1043850   0.1019016  -0.0088542
  -0.2362745  -0.0078479   0.1402537   0.3994491   1.9701043   0.5596549
  -0.1734196  -0.1690782  -0.0310140   0.6218664  -0.4315548   1.8545988
   0.8504698  -1.3614725   1.1327843   0.1728883   0.1209500   0.1377550
   0.8322453  -1.2046340  -0.6514106  -1.0696834  -0.6305999  -0.0891650
   0.1731649  -0.1719573  -0.0515836   1.3143868   0.5301654  -0.0622596
  -0.2798319   0.5974373  -0.3243259  -0.1077969   0.2080928  -0.2347709
   1.5669091   0.0089263  -1.5389832   0.0240646   0.3401381   1.5680435
  -0.0728267  -0.1124660  -0.1885677   0.7888087  -0.6487076  -0.7046703
   0.7469856   1.1720560   0.8348212  -0.0736019  -0.3974381   0.1386818
   2.0420296   0.0517173   0.1512453   0.3981600   0.5941744   1.2494594
   0.0041771   0.3774960   0.4088605  -1.1837937   0.3755604   0.3505482
  -0.0265062  -0.1553873  -0.6487540  -0.0122034   0.0848150   0.0789179
  -0.9518251   0.4768614  -0.4916580   0.1094725  -0.9979246  -0.6721412
  -0.1244959   0.2527371   0.1014336  -0.5126292   0.7762039   0.9825455
  -0.0311650  -0.3952340   0.6364211  -0.2123377  -0.0758971  -0.4780858
   1.8308795  -1.5780204  -0.6297787   0.4005757  -0.1266503   0.6784024
   0.1199808  -0.0191480   0.2278792   0.6092846   0.2065494  -0.2696872
  -0.0909769   1.2703869  -0.0035974   0.0476444  -0.0818316   0.0677185
  -0.2425669  -0.5482567   0.8008167  -0.7169369   0.3068273   0.5872869
  -0.1924910  -0.1543647  -0.0063070  -1.2958453  -0.5693145   1.4681646
  -0.1619392  -0.2145498   0.7081713   0.2239369   0.1927738  -0.2138679
  -0.6423682   0.2131544   0.6329540  -0.3781850  -1.1646639   0.1265138
  -0.2381329   0.0876111  -0.0003035  -0.2629653   0.7617353   0.2077989
  -0.7276191   0.3002637  -0.1062320   0.0821365   0.5805280  -0.2467323
   2.5833306  -1.2087427   0.5378452   0.1537451  -0.0620448   0.4191447
  -0.3569332   0.1639769  -0.0128334  -0.8983760  -0.3656875  -0.3253851
  -0.5964266  -1.5430268   0.9981441   0.2082138   0.0452161  -0.0947321
   1.0213861  -1.2744085   0.1919460  -0.0467708   0.0496921   0.8012787
   0.2318389   0.0198903   0.2335074   0.8363389  -1.6049536  -0.0007077
  -0.5847283  -0.1924675  -0.1645160   0.2477147  -0.0250154   0.1088280
   0.0140554   0.2099933  -0.7263115   0.6316167  -0.3075706  -0.0539294
  -0.4692779  -0.4128975   0.4095266   0.6374178   0.8782169   0.1256059
   1.1147271  -0.0043773  -1.1656349  -0.0577349  -0.2137533  -0.1018900
  -0.7088187  -0.0112318  -0.1605565  -0.2292373   0.0320645  -0.3388888
  -0.4749247  -0.1394526   0.4200349   0.0332060  -0.2134592   0.1056507
  -0.0349216   0.0335706   0.1894804   0.0847539   0.0902221   0.0136378
  -0.4708809   0.1718010   1.1996863  -0.8841244  -0.6872551  -0.0370351
   0.1927303   0.1178963   0.0155028  -1.0382565   0.0132047  -0.2925691
   0.7643681  -1.0059170   0.3853600  -0.1770888   0.0434703  -0.1701767
  -1.1152581  -1.1818706  -0.1225628   0.1091292   0.2494463   0.3240800
  -0.1911815   0.0344498  -0.1412343   0.9470752  -0.2769866   0.3615272
   0.6651722  -0.8719748   1.3234534  -0.1935210   0.1928318  -0.0255330
  -0.4583527   0.4904624   1.1950162   0.3718973   1.0073194  -0.5124647
   0.0611977   0.0545960  -0.1350407  -0.0168760  -1.8936688   0.1418814
  -0.2068204   1.0110005  -0.8640040   0.1342091  -0.0441940   0.2104557
  -1.0606922   1.1897285   0.3396235   0.0558128  -1.1400516  -0.0279608
   0.0981654  -0.0522855  -0.0474549  -0.6859206  -0.6992028  -0.2952291
  -0.6724742   1.4382842   0.8330932   0.0241415  -0.1683582   0.0069166
  -0.1508495   1.9652968  -1.0598533  -1.4475643  -0.0395590  -0.4046662
  -0.0451567   0.1508896   0.0764859  -0.0403987   0.8625037   0.3213347
  -0.0140501  -0.9016199  -0.8496240  -0.0704024  -0.1412187   0.0110905
  -0.2038774   0.1431112  -0.7943634   1.0639677  -0.3882902  -0.4402410
  -0.0175066   0.2464722  -0.0920396   0.0278266  -0.2678614  -1.5099616
   1.9471797   1.0813324   0.1281633  -0.0458746   0.0103650  -0.0932768
  -0.8008489  -0.1857041  -0.0807193   0.2859318  -0.7080992   0.8870352
  -0.0000947   0.1726773  -0.1864591  -1.1092276   0.3818611   0.1745108
   0.9450254   0.2488812   0.5192824  -0.0479493  -0.1394578   0.0267366
   0.0809319  -0.1292511   1.0324821  -0.2453605   0.0304002  -1.8636689
  -0.0590106  -0.3289191   0.1730927   0.4316886   0.4119415  -1.2267643
   0.8886343  -1.3236168  -0.2315164  -0.2848610  -0.0166005   0.0163166
   0.5786587   0.8169591   0.0808851   1.7114107   0.9980583   0.0147548
  -0.2066982   0.0004538   0.3086365   0.7756673   1.6375002   0.3197988
  -1.0840435   1.6509778   1.2416068   0.4565277   0.2464731   0.0276944
   0.4888525  -0.6739589  -0.2059645   0.1823883  -1.6648238  -0.8637700
  -0.0747388  -0.3163597  -0.1434221   0.5275629   0.7893310  -0.5584096
   0.1375812   0.5112921   0.5295066  -0.0090667   0.2446433  -0.1791191
   0.4723424   0.2885535   1.2555447   0.5998800   0.1488753   0.1541734
   0.0937761   0.5118581  -0.1153447  -0.7537972  -0.2159991   0.6967411
  -1.1278506   0.2927277  -0.5538583  -0.0627911  -0.1653786   0.1112071
   0.6004644   0.6001759  -0.1017071   0.6294207  -0.9575863   0.3577888
  -0.0407981   0.1154087   0.1527165   1.2522114   0.8207560  -0.1456668
  -0.2175845  -0.2481680   1.1656987   0.1547246   0.2199200  -0.0406395
  -0.4956078   0.1028826  -0.3442348  -0.0706852   0.7561002   1.8546069
  -0.0589757   0.1533526  -0.4520789  -0.2775832  -1.9319482  -1.2507902
  -1.6334603  -0.0322751   0.3695686  -0.0048346  -0.4755029  -0.0490862
   0.6418848   0.0877315   0.1486933  -0.6846429  -1.7608282   0.7233838
   0.0957027   0.1303853  -0.0030007   1.1745256   0.7690151   0.7412856
  -0.4368303  -0.0673783   0.6372442   0.0349663  -0.2459715   0.1528408
   0.6036387  -0.8534453  -0.3580555   0.7343871  -0.0489735   1.4447876
   0.0484536  -0.2774354  -0.0457587   0.7802735  -0.6552101  -0.0575000
  -0.2193907  -0.1565025   0.1153724   0.2344419  -0.2312530   0.3795835
   0.7903496  -0.0223723   1.2662596   0.8215004   0.3286374   0.1266509
   0.0784304  -0.1498957  -0.0338087  -0.3831622  -0.3784454   0.0378688
  -0.9037464  -1.2935449  -0.1552602   0.0081118   0.0391048   0.0483480
   1.2019410  -0.8797796   0.6059020  -0.8470708   0.2667003  -0.0953478
   0.1381688   0.1854887  -0.0170081   0.8667179   0.7145344   0.0508748
  -0.9270678  -0.8017558   0.2274430  -0.0444092   0.0360957  -0.3092866
  -0.5731660  -0.4500595  -0.6175796   0.4123796  -0.6121751  -0.5101068
   0.1735886   0.0471891   0.0225756   0.0561310  -0.0574584  -0.1216977
   0.9122197  -0.1440767   0.5865702  -0.0783038  -0.3799031   0.0350901
   1.4587566   0.5952456   0.0855682   0.3099651   0.4394267  -0.3511411
   0.0081333  -0.0703098  -0.1359812  -0.7315427  -0.1540986   0.1053532
   1.0265870   1.1005960   0.4346530   0.1001302   0.0118598   0.0226184
  -0.8161033   0.6624219  -0.9871214   0.4034707   1.2426239   0.3331522
   0.1315920   0.3465255  -0.0383873  -0.2401642   0.0807643  -2.6995258
  -0.4780506  -0.9808577   0.0304909  -0.2455818   0.0806246  -0.1554238
  -0.3037927   1.0501113  -0.3670380  -0.5224223  -1.0116938  -0.1145059
  -0.2714152   0.3220682   0.1251165  -0.3881197   0.9316932  -0.6703289
   0.4192584   0.8150567   0.4714432   0.2566358   0.1469968   0.1319154
   0.0616785   0.3415277  -0.4833351  -1.1372422   0.7412809  -0.8978448
  -0.1638217   0.1635984   0.2375033  -0.0791789   1.2683205  -0.0894025
   0.1032969   0.0595633   1.0471453  -0.4003021   0.4636153  -0.3337884
  -0.5481853   0.6253404   0.3214621  -1.2369673  -0.2691703   0.8244721
   0.2451668   0.2922760   0.1435591  -1.3996738  -0.1348611   1.0536247
  -0.9621633   0.1754567  -0.5894378  -0.0239372   0.0700384  -0.0992584
   0.6712423   0.0163063  -0.5633033   0.0314526   0.6850156   0.2391449
  -0.1610437   0.2475374   0.1460606   0.0281915   1.9002681   0.5477174
  -0.1840862   0.5693417  -0.0380961  -0.0780678  -0.2222886   0.2978258
  -0.9083693   0.1260712   0.1998607  -0.5145582   0.6705426  -0.1074933
  -0.3242359  -0.0274343   0.0695099  -0.5863097   0.2880790   0.8939338
  -0.1218571  -1.7173433   0.1324981   0.1764842  -0.4896313   0.1293955
   0.0068282   0.5781679   1.2551597  -0.2189487  -1.1363263  -0.2270713
  -0.0893560  -0.3844427   0.1518183  -1.6155029   0.8399066   0.5041692
   0.4032188  -0.8899294   2.0049422   0.0032972  -0.0421642  -0.0692010
   0.9124997   1.2663164  -0.4482881  -0.1048923  -1.9385744  -1.4127315
  -0.3070085   0.1319434   0.1470117   1.2851155   0.0352322   0.5604987
  -0.1383350  -0.6741252  -1.2295432   0.0553511   0.0344331  -0.2819195
   0.6975459  -0.4460275  -0.4573081  -0.3647520   0.3013030   0.0722377
   0.2175457  -0.2953867   0.0844766  -0.3267923   1.0140736   0.5529387
  -1.2473029  -1.3466535  -0.3870839   0.2353349  -0.2500871  -0.1996890
  -0.8646068   0.2344088   0.7800887  -1.4293204  -0.6925948  -0.4663834
   0.1511227   0.0721034  -0.0514705  -0.0196382   0.3084567   0.7282792
   1.2312959   0.1236598   0.8485973   0.1634330   0.0316763  -0.1278196
   1.0216924   0.4952039  -0.3299006   0.3091219   0.1197256  -0.1831680
  -0.1124807  -0.0928628  -0.2393735   0.3787069  -0.3691609   0.1231321
  -1.0242754  -0.5855938   0.8386669   0.1841423   0.0972987   0.1278444
  -0.6788177   0.4471299   0.5659026  -0.1473673  -0.4506335  -0.8780472
  -0.5562302   0.2777282   0.2059560   0.0277370   0.4251483   0.9269928
  -0.1415064   1.2425080   0.0324828   0.3086966  -0.2324728   0.3258880
   0.4810702  -0.4116047   0.3591176   0.2836425  -0.6819192  -0.7128132
   0.1986454   0.1601051   0.0289588  -0.1426952  -1.1389585  -1.2174689
  -0.6028921   0.6024381  -0.7048103   0.0520669   0.2864547   0.2589456
  -0.8598899  -0.2844194  -0.2676258  -0.0427691   0.8326888  -0.2833429
  -0.2681369  -0.0269412  -0.2233620   0.3139527  -0.2910234   0.0507993
   1.1184953  -0.4658552   0.6490938  -0.2093483  -0.2942279  -0.0368425
   0.2034052   0.9847596   0.1558328   0.5147945  -1.0861382   0.0383085
  -0.1583937  -0.2714843   0.0724841  -0.1996169  -1.2594389  -0.5979040
  -0.0991718  -0.6391197  -1.7464022  -0.1201217   0.1024711  -0.3054874
   0.8059895   0.6589443   0.1217132  -0.9432366  -1.7859240  -0.3671605
   0.1021098   0.1832477   0.3424864   0.1946455   0.8661053   0.0599626
   0.4848862  -0.4717876  -0.3893869  -0.0344106  -0.1946232  -0.3562482
   1.5674708   1.2288809   1.4170354  -0.1119323  -0.5539518  -0.7495067
  -0.4689211   0.1450671  -0.1441236  -0.8015091   0.5979147  -1.3221503
  -0.7692450   0.2854645   0.7648836  -0.0156389  -0.0047144   0.0753157
  -1.4103568  -1.6834307  -0.3557998   1.8206005  -0.9257496  -0.0694927
  -0.1840724   0.1199732  -0.1441652  -0.1759454   0.4217096   0.4856627
   0.8173194   0.5401473  -0.6896383   0.0410317  -0.2878488  -0.1550720
   1.1121007  -0.7382107   0.0455776   0.0622497   0.1321003   0.8385898
   0.2348577  -0.0898657  -0.0660761   0.1499008  -1.0904041   0.6786698
  -0.0199988   0.0781773  -1.2754214   0.0524792   0.2009206  -0.0152020
   1.1538621  -0.9216272   0.6639474   1.0146289   0.2074380  -0.7478530
   0.0533559  -0.1025684  -0.0072650   0.2182078  -0.7832066  -0.2794287
   0.6141063  -0.8655222   0.9046519   0.4340561  -0.1449056  -0.2693771
  -0.0071764  -0.4305084  -0.2645908  -0.6218374   0.3159094  -1.5001244
  -0.1734956  -0.0607412  -0.1626380   0.1934534  -1.2926257  -0.0651657
   0.8772236   0.3561298   0.4179508  -0.0457740   0.1830036  -0.1358152
   0.8684170  -0.1211503   0.0042466   0.6429559  -0.1327499  -0.5841859
  -0.0033447  -0.0325323  -0.0015317   0.4403627  -0.0348565   0.3282852
  -0.9648165   0.8962762   2.0981128  -0.1133120   0.0574550   0.1687782
   0.0949066  -0.7821049   0.0130554   0.7102316   1.0654279   0.9759995
  -0.1426426   0.0735429   0.2850540   1.1709337  -0.6036981  -1.0869909
   0.2909872  -0.9148267   1.0235588   0.1878352  -0.0629878  -0.0875554
   0.5231013   0.6337027  -0.8036241  -0.9961638   0.7938282  -0.1933661
  -0.2181057   0.0182348   0.0414383  -0.8097921  -0.3373411  -0.3514599
  -0.2899380   0.5586484  -0.8617160   0.3962666  -0.0454499  -0.1383163
  -0.6073123   0.6787014  -0.1566777  -0.8492015  -0.5483862  -0.0035532
  -0.1394316  -0.1888038   0.2433914   0.4765091   0.7691840   2.4867636
  -0.7799915   1.0873480  -0.0438957   0.1097396   0.0295600   0.0636694
   0.0444442  -0.0302088   1.4589046  -0.8263688   1.2740431  -0.3891894
  -0.1400818   0.2880965   0.2545021  -0.4121416  -0.7707633  -0.7275062
  -0.1187260   0.0825876   0.0657627   0.0176625   0.2232323   0.1605558
  -1.4360809   0.6262695   1.4623587   0.0576921   0.6310547   0.0207241
   0.2272242  -0.3036658  -0.0861594  -0.0364436   0.5186048  -0.3245077
   1.3295316   1.5718661   0.1674294   0.0744121   0.0093033  -0.0506895
  -0.0100558   1.3523953  -0.5480412  -0.7113794   0.8796750  -0.0547500
   0.2127963   0.0603951  -0.2638507   0.0247592  -0.2165947  -0.9326958
  -0.6802038  -0.3839726  -0.2394726   0.0120015   0.2364370   0.1698049
  -1.6645123   0.4396812  -0.6692539   1.4826379   0.2912034   0.1364068
   0.3195237  -0.1544317   0.1745892  -0.9892133   0.3710147  -2.3244688
  -0.7661146   0.1380647   0.0091880  -0.0339787  -0.2254741  -0.0494000
   0.1575370   1.4445178  -0.4527624  -0.7304395  -0.5332614   0.6107443
   0.1044981   0.1652142   0.1260479   0.1535244  -0.8888260   0.9406828
   0.1177433   0.6084577   0.2461134   0.0914830   0.2115588  -0.2711198
   1.3246730  -1.7295258  -0.3939799   0.2208280  -1.0191420   0.0524238
  -0.1485344  -0.1746114  -0.1624257   1.4205394   1.6684068  -0.1635674
   0.1185994  -0.2847203  -0.9266017   0.1258758   0.5346871  -0.0224594
  -1.1049136  -1.2140507   0.1313164  -0.4623581   0.8469252   0.8239164
   0.3825440  -0.0439858   0.0914820  -0.3776149   0.2519190  -0.2953646
   0.3457102  -0.0091354  -0.5425265   0.3605336  -0.0836048  -0.0296025
  -0.9535394  -0.5184810  -0.5878529  -0.5668217   0.2298453   0.1060158
  -0.2099723   0.3209232   0.0121230  -0.4727357   0.1501748   1.2977395
  -1.0381110   0.6299925   1.5331294  -0.5413710  -0.3526974  -0.7218488
   1.1945389  -0.0223244  -1.4324713   0.9883922   0.0557552   1.0712547
  -0.0349142   0.2236788   0.3814956  -0.9233076  -0.5103563   0.2107674
   0.5909216  -0.6053631   0.0362715  -0.0132563   0.0072404  -0.2840973
   0.7210875  -0.9123898   0.2466290   1.3586038   0.7742960   0.4602988
   0.0393862   0.0490581   0.2423864  -0.5883932   0.5600503  -1.4817793
  -0.5431365   1.5174402  -0.4558666   0.1455405   0.2380751  -0.0260799
  -0.1110879  -0.5490071   0.7103343   0.0823681   0.6657392  -0.2634850
   0.2997522   0.0627785   0.4014860  -0.1955653   0.0491139  -0.0170099
  -0.8110931  -0.3376157  -0.5097961  -0.2306047   0.1638689  -0.1597936
  -0.9677829   0.8871259   0.2803157   0.4546849  -0.7419241   0.3208328
  -0.1375748  -0.0640861   0.0389343  -1.1334253   0.3281191   0.2891101
   0.8057417   0.7972010   0.3890195  -0.2488519   0.5153924   0.1105089
   1.1316495   0.5160811  -0.4673033   0.0866024  -0.9866666  -0.3421664
  -0.2589362   0.5515616   0.0136784   0.5715769  -0.1464798   1.0710234
   0.0547859  -0.6067587  -0.6850201  -0.0392166   0.0077927   0.1725149
  -0.0372020   0.6682333  -0.3929538   0.0806610   0.7311069   0.2021480
  -0.1150022  -0.0857989  -0.3245721  -0.5965499   0.5701329   0.5741256
   1.3959422   0.0022502   0.2776327  -0.1384694   0.1816679   0.0450764
   1.7996920   0.5617084  -0.9175073   1.1780888   2.0474368   0.8641145
   0.0273767   0.2329616   0.0065977   1.1495956  -0.1694411  -0.3442226
   1.4114356  -0.3995014   0.4059164   0.3246873  -0.0466469   0.0915201
   1.0806466   0.2439150   1.3849436  -0.1626381  -0.1287237   0.0996383
   0.1558562  -0.0770374   0.2643415   0.2253730  -1.4572954  -1.4138068
  -0.5487966   0.8571269   0.4419725  -0.4381951  -0.2319728   0.1578541
   1.2853945   0.2368745   0.5894867   0.3270016  -0.4312324  -0.0159960
  -0.0004176   0.2241218   0.0868659  -1.1589727  -1.1488436   0.6002912
  -0.4695194   0.8022063   0.6225084   0.0551632   0.6243981  -0.0929157
  -1.0388813  -0.8072025  -1.4451915  -0.6404702  -0.6785947  -0.4007505
   0.0950224  -0.0194103   0.1009705  -1.7557870   0.0516698  -0.1957257
   0.0674519  -0.1140590  -0.7118667  -0.1653042  -0.0486628   0.2981951
   0.0792128   0.2908843  -0.9627961  -0.4774451   0.3962597  -1.0619363
   0.1822812   0.0271178  -0.2427434  -0.1509796  -0.1427858   1.0195260
  -0.6568749   0.3274503   0.6300722   0.1130727   0.1863156   0.0330859
   1.4497071   1.5937191   0.5427792   0.9281041   0.3296181  -0.2281291
  -0.4643414   0.2449578   0.0048429  -0.9559218  -0.9995593   0.6209926
   0.6735812  -0.2613772   0.7429106   0.0163876  -0.1385848   0.0323310
   0.3289388  -0.9241278  -0.3026875   1.0407447  -0.0957312   0.6395159
  -0.2044697  -0.0333468  -0.0245852  -0.0862059  -0.0666271  -0.3763989
   0.6777438  -0.5928556  -0.4101442   0.1727929   0.0631418   0.2617961
   0.7860898  -0.7985931   1.0471925  -0.9555575  -1.2572048  -1.3958767
   0.1132399   0.1267762   0.1914698  -0.0601285  -0.4070723   0.3501472
  -0.2242880  -0.9135095   1.2157818   0.1902549  -0.0039880  -0.0654403
   0.5893895  -0.3849902   1.0206448  -0.0423434  -0.8001937   0.3807514
  -0.1008956  -0.1995334  -0.1269488  -0.4540350   0.9492275   0.1475162
  -0.7510769   0.4536811   0.8949629   0.1624278   0.1545148  -0.0469683
  -0.1849788  -0.1720187   0.2519917  -0.1958315   0.1810296   0.4169471
  -0.4567286   0.1419498  -0.0132864  -0.2029467  -0.1532351   0.1033139
  -0.8148353  -1.2814308   1.7081173  -0.1622168  -0.2357457   0.2664036
  -0.8826088   2.0537417   0.7463521  -0.9858772   0.1908428   0.6281970
  -0.1076203  -0.0154038  -0.0822846  -0.9655382  -0.4854894  -0.3953410
  -0.9119989  -0.8466985  -1.4064947   0.2076630   0.2524651   0.4602625
   0.1125776  -0.2468020   0.1247671  -0.0123583   0.2253050  -1.1395088
   0.3596824   0.0739201  -0.1894563   0.5653228   1.8449735   1.2652379
   0.0627489  -0.1172840  -1.2053489  -0.2197722  -0.1552131  -0.1386507
  -1.3123651  -0.5372204   1.0250611   0.3720860  -0.7508209   0.7091525
  -0.1395791  -0.0396955  -0.0148516  -0.5171198   1.1378595   0.8209225
   0.8966314  -0.5162360   1.3529764   0.1915918  -0.0332073  -0.1129471
   0.4093549  -0.5432353   0.6375057   0.2128260  -0.2133439   0.4949840
  -0.1113999  -0.1696256  -0.0753088  -0.0997726  -0.8642908   0.8730472
   0.9210682   0.0658491   1.3397499   0.2754450   0.0120308   0.1493577
  -0.6280477  -0.4563802  -1.1382932  -0.6870898  -1.1237733   0.2109321
  -0.0573216  -0.0484421  -0.1877396   0.4238287  -1.1377943   0.4091193
   0.2909946  -0.7379708  -0.4751006   0.1207522   0.4054050   0.1994434
  -0.6104017   1.4137151   0.4156420   0.1580160  -1.2104871  -0.3500680
  -0.0340426  -0.1811674  -0.1492974  -0.1303338   0.9382090  -0.3540114
  -0.7003421  -0.7118638   0.2103201   0.1287540   0.1628664  -0.2625003
   0.2416628  -0.5834484   0.3700029   0.4573572  -0.0671267   2.2063544
   0.0135249   0.0722658  -0.0242946   0.3040315   1.0174176   0.4666087
  -1.8339322  -0.5299935  -0.2967065  -0.2703004  -0.0027963  -0.3662115
   0.7787510   0.7007174  -0.2345593   0.6328952  -0.6137031  -0.6235682
   0.1767060  -0.0334624   0.2782129  -1.8354290  -0.3293941   1.0964821
  -1.0393426  -0.3128185   0.6511194   0.1694489   0.1631579  -0.2778090
   0.3312215  -0.7653697  -0.6812628  -0.0081039  -0.2476702  -1.9635260
   0.1040670   0.1924418  -0.2712856  -1.1748095  -0.0782038  -0.3538315
  -1.9643579  -1.2158209  -0.8783577  -0.0357022  -0.6459764   0.1095341
   0.0420161  -0.3475734  -0.1438152   0.0690062   0.2438981  -0.0929688
   0.1991277   0.1930923  -0.2006707   1.1034961  -0.1135453   0.5736681
  -0.4794451  -0.1602505  -1.3216914  -0.3294899   0.1057224   0.1983933
   0.9327309  -0.6894441   1.0500762   0.4600092   0.5696080  -0.3452717
  -0.1732143  -0.0480040   0.1682822  -0.1145186   0.2525328   0.5947515
   0.1089379  -1.0052723   0.2281036   0.1003195   0.0584376   0.1414028
  -0.8713197  -0.5272971  -0.3126127  -0.7734847  -0.5167444  -0.0133566
   0.2023267   0.1046041  -0.3333038   1.3242439   0.6915529  -0.9541259
  -1.4672329   0.3624004   0.1223144  -0.0070256  -0.2366471  -0.1698501
   0.8037347  -0.4286781  -0.7582546  -0.3128134   0.2188457  -0.3368381
   0.0057932   0.2379221  -0.0312491   0.0759806   1.1635171  -1.0118004
  -0.5599514   0.3873093  -0.1217505   0.0722839   0.1979066   0.1017199
  -0.3289911   0.2048926   0.0117309  -0.4407667   0.2963055   0.0660479
   0.1880290  -0.0626500   0.3162905  -0.5998309  -0.0735925   0.3094595
   0.7198958   0.0907617  -1.0962235  -0.1800429   0.0412535  -0.3331473
  -1.0611277   0.5681210  -0.3433530   1.6530809   0.1607477  -0.9846922
  -0.1139949  -0.1821556  -0.0111618  -0.9961339  -1.3566280   0.4351499
   0.0032889  -0.7676086   1.1629793  -0.0723927  -0.0914298  -0.0150005
  -0.2070286   0.1549341  -1.4877291   1.4074374   1.0457067   2.0454135
  -0.0013262  -0.2305007  -0.3287227   0.4403481   0.6617469  -1.6960266
   0.4303952  -0.1405375  -0.1017235  -0.0622722   0.0086144  -0.0659265
   0.1964742  -0.4976236  -0.0542333   0.6033527   0.4003097  -0.1280677
  -0.2131372   0.1389879  -0.4333255   0.5590569   0.7218649   0.8870844
   0.7831885   0.6996064   1.0708631   0.2793440   0.0072112   0.2305667
   1.6475932  -0.1780682   0.6624625   0.3615481  -0.3124590   0.3148688
  -0.0411177  -0.0938271   0.2079546  -0.2826341  -0.9921836   0.7201252
  -1.4963692  -0.9089621  -1.3888582   0.1708524  -0.0888722   0.1672526
  -1.4855320  -0.3400547  -0.1541680   0.7057743  -0.7370737   0.2441089
  -0.1221459  -0.1671583  -0.1715188   0.0786769   1.1417909   0.3800674
   0.9646950  -0.6445196   1.9985629   0.0673070   0.0855391   0.2271957
  -0.6259002   1.1332626  -0.2880469   0.7349603  -0.2952176   1.9593600
   0.0955484  -0.3235724   0.0932230   0.4224004   0.1136992   1.2428795
   0.1529665   0.6259382  -0.1970867   0.1879326   0.0717988   0.2468402
   1.0603118   0.1906739  -0.1358889   1.2929455  -1.5380585  -0.0052389
   0.1918372  -0.3286473   0.4429891   0.2273099   0.8307884   1.0105334
  -2.0646347   0.6878199  -1.6259235  -0.1031916   0.0809109  -0.0192738
   0.8765179   0.5518615  -0.2481721  -1.9500987   0.3502427  -0.5838121
  -0.1294772   0.0088372  -0.0067537  -1.0689008   0.7151892   1.0830846
  -0.8938384  -0.4492755   0.0251695   0.2678580  -0.2138025   0.0270197
  -0.6431544   0.4524941  -0.1807775  -0.9853443   0.0363231  -1.1081026
   0.3160660   0.3317609   0.3287590   0.4946391   0.0582713   0.9947531
  -0.5625975   0.8740921  -0.1712731  -0.0125654  -0.0646085   0.0627057
   0.2243452  -1.9195762  -1.6891666  -0.0018302  -0.2544333   0.8983448
  -0.2102154   0.4378601   0.2537431  -0.5688649   0.8899788  -0.9658471
   0.3558515   1.4785888   0.2951992   0.1071713   0.0392253   0.0439216
  -0.0235682  -0.4714247  -0.5849249   0.2157849   0.2476011   0.7572210
   0.0437284   0.0026717  -0.0531270   0.4167864  -0.2365591  -0.6351865
   0.4144719  -0.8877429  -0.4539926   0.3008637  -0.2377737  -0.1101928
  -0.7228386   0.2988883  -1.9329133  -1.1056694  -0.2257617  -0.3787532
   0.0973439   0.3614676  -0.0042004  -0.6472698   0.1956460   0.9727151
   0.2549648  -0.8223688   0.8160149   0.2496314  -0.1750032   0.2018653
   0.9900733   0.1057977   0.7658192   1.1761397   0.5645678   0.1722527
  -0.1427680  -0.2286644   0.0000638   1.9026516   0.2588817   0.1424040
   0.0136875  -0.0915956   1.1575082  -0.1605712   0.1908608  -0.2306425
  -0.0474053  -1.5685721   1.1185775   0.1320233   0.4101291  -0.1360936
  -0.1426472  -0.0111485   0.0235744  -0.3546607   0.9298008  -0.7683452
   1.0207834   0.5417301   1.8225741   0.0299504   0.2593027  -0.0584400
  -0.2267595  -0.6596919   0.4553367  -0.8878929  -0.8697843  -0.4152572
  -0.2481916  -0.0044254  -0.0224780  -0.7278438  -0.6467269   0.4025813
  -0.4293748   0.6558449   0.8436786  -0.2900053   0.2381372  -0.2703798
   0.9743519  -0.0281094  -0.7250611  -2.2509839  -0.5530819  -1.5836237
   0.0942669  -0.1233140  -0.1841774  -0.1809806  -0.7122736   1.0063581
  -0.4045477  -0.7216941  -0.8263814   0.1110688   0.1934439  -0.1078491
  -0.5584997  -0.8957613  -0.3477310   0.5736149   0.5679478   1.0978362
   0.0802088  -0.1829621   0.0529975   0.5835788  -0.5918989   1.2489364
  -0.2393047   0.4982276   0.9780537   0.0962982   0.1002641  -0.1053557
   0.2965659  -1.8655663  -1.0388301  -1.0506602   1.4270636   0.7661171
   0.0019913   0.0209118  -0.0801814  -0.3927942   1.1878234  -0.2725233
   1.3534322  -0.1965219  -0.8141055   0.2982102  -0.4568909   0.2324348
  -0.0372280   0.0012924  -0.5181243   0.2288796  -0.7927690   0.2026089
   0.0907291   0.0868129  -0.1613405  -0.4716069   0.1991195  -0.5437306
   0.4608589  -0.4859768  -0.5056680  -0.1677115   0.1445054  -0.3709426
   0.0257926   0.8796787  -0.3823936  -0.3609887  -0.2549577  -0.1333762
   0.0320713  -0.1249840   0.0862764  -0.1477320   0.2435847  -0.5471124
   0.2585888   0.5802123  -0.3615480  -0.2150305  -0.1739322   0.2078049
   0.4959171   0.0120288   1.0495163   0.4970841   0.3169727  -0.0030670
  -0.1046961   0.0477260  -0.6186109  -0.3991352  -0.0898423   0.0377807
   1.6563224  -0.7435731  -0.0124309   0.1077956   0.0282207   0.1542088
   1.2157846  -1.1701663  -1.2960344  -0.8924201  -0.1844653   0.4193288
   0.1430354   0.4587971  -0.3943326  -0.3809986  -0.2509989   0.6241144
  -0.9728869   0.6005979  -0.6877651  -0.1078447   0.3898952   0.3293466
   0.6209794   0.5748763   0.2960575  -0.5861308   0.1608612  -1.1391526
  -0.0507800   0.0369203  -0.0868202  -0.1778322  -0.8662067  -0.3322923
   0.4023241   0.6375863  -0.0436333   0.0438812  -0.1488405   0.0723183
   0.3088491  -0.4986131   0.2586061  -1.5162055   1.2020841  -0.3081457
   0.1791328  -0.2818576   0.0908096  -0.4024273   0.0071483  -0.4282676
  -1.0568127   0.7268812   0.4052030   0.0789690   0.0601534  -0.0518458
  -0.9404534  -0.6829525   0.5057355  -0.5844906   1.3710551   0.5253026
   0.0755238  -0.1524908  -0.1200951  -0.8494969  -0.0882628  -1.3014088
  -0.6654783  -1.4175587  -0.9959338   0.0740744  -0.0780902   0.1896772
  -1.0280262   0.9613769  -0.1794868   0.3415718  -0.5105663   0.6236304
   0.3673173   0.0304512  -0.0481477   0.3702551  -1.4464625   0.2254114
  -0.3898960  -0.6734843  -0.8978719   0.0450025   0.0156159  -0.0426782
   0.1914493  -0.5300233   0.0531698   0.1422716   0.1479561   0.4640892
  -0.0358636   0.2056295   0.3695113  -0.9627356  -0.4914352  -0.5400316
   0.7655603  -1.1050055   0.0582164  -0.1935635   0.0382320  -0.2120517
   0.0319766  -0.7381288   0.5440644   0.5662298  -0.9250071   0.0124177
  -0.2164926   0.2217805  -0.1720328  -0.1930633  -0.0250390   1.9596988
   0.1563293  -0.2260942   0.2925853   0.2424566   0.4340193   0.0447364
   0.8989376   0.6490016  -0.3789500  -0.7888708  -0.3259807  -0.8826152
   0.1791349  -0.3151920  -0.0680378  -0.4079390   0.7399955  -0.3282049
  -0.2146859   0.0320402   0.1960425  -0.1009688  -0.0317287  -0.2600057
  -0.8908292  -0.4895168   1.1843148   0.7297077  -0.7598148  -1.3463152
  -0.0246895  -0.3692808  -0.0148945  -0.1345198   0.7198625  -0.6567889
   0.3572405  -1.0580077   0.1742234  -0.1993948   0.0004758   0.3615788
   1.7619757   0.2806876   0.2548781   0.3459836  -0.1708375  -0.5434897
   0.0402131   0.0879705   0.0766964   0.7086913   0.5599272  -0.2192279
  -0.1322679  -0.4245020  -0.6572371   0.0673567   0.1444017  -0.0991261
   0.4990384   0.9940817  -0.5218375   0.0911160  -0.3356251   0.9244141
  -0.3627149   0.3923002   0.0242809   1.1145431   1.3086916   1.7425731
   0.3327763  -0.1900708  -0.0626965  -0.2164261  -0.3110619   0.1002085
   0.3795735   1.1612101  -1.0376109   0.5954546   0.7977449  -0.5246716
  -0.3070859   0.2326399   0.0800802   0.5687693   0.7572295   0.8253256
  -0.4970435  -0.2125362   1.1755616   0.1026491   0.1359591  -0.1505450
  -1.1088573   0.3196454  -0.0370782   0.1288938  -0.5833683  -0.1704595
  -0.1048275   0.0218304  -0.2310013  -0.1354792   0.5758197  -0.1622912
  -0.0736286  -0.8415993  -0.5893644   0.2680020  -0.1359591   0.1194519
  -0.2861699   1.0117112  -1.6732254   0.2897565   1.6825418   0.3360579
  -0.0011771   0.2003073  -0.1000483  -0.6410423  -0.4503730  -0.5208419
  -1.0685765   0.4410850  -0.4577698   0.2838267  -0.1319516  -0.2023791
  -0.7218746   0.4094473   1.5888056   1.1536045  -0.2239291  -0.1775819
  -0.0771391   0.1418554   0.0895297   0.4880273   0.2034550  -0.0659235
  -0.9207985   0.5832982  -0.0472163  -0.0452127   0.1270147  -0.4202988
   0.0522480  -0.0177885  -0.0540720   0.0462064  -0.4636710   0.1404398
  -0.1401472  -0.1069981   0.2355375   0.9923089  -0.8142076   1.8357348
   0.3041160   0.8986132   0.6886827  -0.3474959  -0.0195739  -0.0423449
   1.6012407   1.9879741  -0.2849466   0.2853844   0.7060891  -0.4593646
  -0.0523176  -0.0592931  -0.1762711   0.0747202  -0.2503992  -0.5955517
   0.9857554  -1.7978872  -0.1822431  -0.0573395  -0.1410250   0.0277260
   0.6778438   0.3363702  -0.2467497   0.5335041   0.2223450   0.9330309
   0.1951927   0.1772964   0.1950881   0.2508558  -0.0459158   0.7697553
   0.5149850  -0.0643961  -0.8935272  -0.0191514  -0.1672929  -0.0903599
   0.4587488   0.4653923   0.3565125   1.2888548  -0.5081668  -0.8510435
  -0.1346698  -0.3181973   0.1183607   1.2864833   0.3007061  -0.8405670
  -0.6262452  -0.9882298  -0.0921624   0.1114359  -0.2398655  -0.1090868
   1.0750568  -0.3101860   0.1903341  -0.3108507  -0.2629578   0.4687355
  -0.1658979  -0.3124777  -0.1265773  -0.4649135   1.5986946   0.7956761
   0.9749253  -0.4927894   0.7818748  -0.2100514  -0.0542011  -0.3683127
  -0.4139769   0.6893320   0.7037409  -0.3954502   0.1866225   0.9500065
  -0.0864163   0.2541169  -0.3290567  -0.1623725  -0.2609028   0.2406707
   0.1182520  -0.4978757   1.0528305   0.2697895   0.0783271   0.2047150
   0.0172242   0.2711262  -0.8881079  -0.1122049  -0.8815495  -0.2365471
  -0.2118124  -0.1150278   0.1787530   0.9256856   0.2631645   0.7004126
   0.2545821  -0.8238446  -1.2659449   0.2227788   0.1587069  -0.0869864
  -0.8243759   0.4011535   0.0530301   0.1131565   1.0368313  -0.9466611
  -0.3600709   0.2134650  -0.2064606  -0.2143923  -0.3408743   0.2770507
   0.2570254  -0.1553531  -0.9602763   0.0176598  -0.0334330   0.0822848
   0.4044854  -0.7219768   0.2493953  -1.0607661   0.3737812   0.6596294
  -0.0832234   0.3344552  -0.0521599  -1.1990696  -0.5519628   0.5753897
   0.7283495   0.2539829  -0.7501053  -0.2008561   0.0040256   0.3277765
  -0.0195640  -0.3532218   0.3553410   0.1443470  -0.5061351  -0.9062272
  -0.0187795   0.1071112  -0.2559988  -0.6195064   1.1846164  -0.2974293
   1.7414361   0.1866386   0.7155211   0.0807151  -0.5263653  -0.0499569
   1.1953355   1.1456053  -0.5272064   0.1456260   0.4008412  -0.5678932
  -0.0290084  -0.2931848  -0.2050555   1.2091572  -0.8825300   0.3402843
  -0.9223819  -0.7316048   0.3606078   0.0372382   0.1347256  -0.2475259
  -0.8423571   0.4628120   1.5458758   1.7296090  -1.4451312   0.0470614
   0.0486642   0.0922697   0.3006774   0.1017230  -0.1668223  -0.1342558
  -0.8376873  -0.3164350   2.1998444  -0.4357685  -0.0459736  -0.2623814
  -0.7064585  -0.4810945   0.8446612  -1.2105732   0.7627516   0.2393838
   0.1593034  -0.4277923   0.0768201  -0.7147071  -0.4593188   0.5587843
  -1.1615525  -0.8108795  -0.0492178   0.0054793   0.3937248  -0.0341566
   0.5654496   0.4393196   0.1241145  -0.7487992  -1.4300960  -0.1230583
   0.2594539   0.1978870   0.0088270   1.1628178   0.3529592  -0.7169220
  -0.3928416  -0.4528224   0.3155458   0.0097133  -0.0770354  -0.2445606
  -0.1844009   0.5526812  -0.7620519  -0.1685173  -0.1110469  -0.3474267
  -0.0916565   0.0609786  -0.0072901   0.0968967  -0.7258312   0.3803299
  -0.3401842   0.7826612  -1.8818668   0.0426116  -0.2612205  -0.0354237
  -0.3015088  -0.2522199  -0.4974527  -0.9587440   0.1254405   1.1096281
   0.0512798  -0.4702409   0.0964161  -1.2286302  -0.2071959   0.2690000
  -0.1631896   1.1080845  -0.8143797  -0.0192665   0.0501409   0.0568433
  -1.1376707   0.9398784   0.3836955   0.8921422   1.4830966  -0.6431932
  -0.0912421   0.0582573   0.2876008  -0.0346198   0.5704619  -0.4724767
   2.0463311  -0.6102693  -0.0364732  -0.0824938   0.1155779  -0.3062762
   0.8114798  -1.4826491  -0.2577194   0.3905453  -0.1800447  -0.7387759
   0.4622755  -0.3528510   0.0582655  -0.5234905   0.9478768   0.6244814
  -0.7037124  -0.4113254   1.2742466  -0.6758190  -0.0009295   0.0376306
   0.9915048  -0.9600631   1.0881159  -1.6019213  -1.3706401   0.2650402
  -0.2711719  -0.0961701   0.1593364   0.1013782  -0.1405728   0.3534428
  -0.0512007   0.4964657  -0.6154290  -0.3452563  -0.2898902   0.2839710
  -0.0115367  -0.2153093  -0.6568359   0.7271927   0.3992833  -0.2792825
   0.3211575   0.3513733  -0.0222380   0.2389593  -0.4483448   0.7099959
  -0.5060805  -0.3691902  -0.4628192  -0.2288955   0.1396056  -0.1885062
   0.5087469   0.2440395  -1.0534838   0.6772961  -0.8114614  -1.3259963
   0.2208683  -0.0600016   0.2473869   0.3644353  -1.0509516  -0.1184749
   0.8222212  -1.1400676  -0.1371890   0.0557164   0.1178728  -0.1708928
  -1.8304286   0.2145843   0.5924469  -0.7181940  -0.6833853  -1.0568813
   0.0312542   0.0032675  -0.0730521  -0.0629304   0.5724594  -0.1070396
  -0.1835547   0.5244647  -0.0869676   0.0627419  -0.0154763  -0.0609556
   0.9256990  -0.4819752  -0.1107621   1.4195449   0.0459222  -0.0080177
  -0.0176388   0.1667872  -0.1060014  -0.3588671  -1.0880476  -0.7160198
   0.3974868   0.6255806  -0.3878230  -0.1026261  -0.1135912   0.1250971
  -0.1238387  -0.1774010  -0.0172573   0.2566561  -0.8228708  -0.1888091
  -0.0934384  -0.1606425   0.3412202  -0.6109434   0.1581442   0.2957880
  -0.0066346  -0.9255567  -0.0945997   0.1254973   0.1687804  -0.0081133
   0.3605038  -0.3957737   0.1674479  -0.2915641   0.0338289  -0.0482367
  -0.0542082   0.1682970   0.2819550   1.4722151  -1.3636968  -0.8360080
   0.1767958   0.1961987  -0.3278340   0.1214740   0.0524634  -0.3852253
   1.1148590   0.2986124   1.8219027  -0.5458774  -0.6761484   0.5670011
   0.0083170  -0.5283132   0.1566916  -0.4522776  -0.1314349   0.9762910
  -0.0592426   0.2216206  -0.7295832  -0.2001784  -0.0260293   0.1844708
  -0.7505523   0.6997610  -0.1265392  -0.6588267  -0.7713626   1.6105137
  -0.2519901  -0.3055068  -0.1497666   1.0020423   0.1156222  -1.0498598
  -0.2950471   0.9789415  -0.1886299   0.0771624  -0.1361058   0.0286948
  -0.5651593   0.1826907   1.1998992  -1.4600002  -0.9877196   0.9111162
  -0.1838032   0.1435280  -0.1838996  -0.1326745   0.2647876   0.1793778
   0.9261278   0.2091885   0.0031551   0.1058591  -0.2808474  -0.1856031
  -0.0020461   0.3023519  -0.6879731   1.5952643  -0.3729759  -0.9028664
  -0.0869267  -0.3611446  -0.3817675   0.0769042  -0.0725048  -0.6804776
   1.1057086   0.8822455   0.2958944   0.2213081   0.1591297   0.0077640
   1.2712206   0.4743658   0.0997826   0.4132721   0.0718002   0.7390272
  -0.1374815  -0.1002187   0.0035209  -0.3276602   0.1599386   0.3993102
  -0.0454609  -1.2401702   0.2474085   0.1652781   0.0048367  -0.0751563
   0.3178445   0.9084195   1.9782734  -0.3675111   0.9980935   1.1397675
  -0.0953777   0.0435201  -0.0392091  -0.0842379  -1.8868379   0.2866160
  -0.3091740  -0.0027691   0.8990228   0.0727946   0.1446295  -0.0242900
   0.8873324  -0.0989616  -0.1318457  -0.8956047  -0.8941068   1.2999625
   0.0243172  -0.4120585  -0.2726321  -0.4129054   0.5580306  -0.6657770
  -1.3501007   0.4520466   0.2279214  -0.0028859  -0.2115966  -0.2478368
   1.3385252  -0.4806532  -0.7063714   0.1637902   0.9941739   0.3068970
  -0.1941627   0.1118425   0.0685376   0.3173407   0.4014756   1.6747815
   0.0785835   0.6267502  -1.7560203   0.1955050  -0.1790554   0.1509301
   0.1245528  -0.5926370  -1.4697419   1.5009405   0.8231268   0.0311793
   0.0170715  -0.0908795  -0.1220012  -1.6007398  -0.4824649  -0.0345408
  -0.8336082  -0.3750104  -1.0019652   0.0023084   0.1602607  -0.0391654
  -0.3123055   1.0359961  -0.1267063  -0.6201986  -0.5585447  -1.0364570
   0.0770732  -0.0504770  -0.0119995   0.8818298   0.1988526  -0.1802783
   1.0217226  -0.2019209  -0.9948343  -0.0468115  -0.1854287   0.1908439
   1.1985866   0.1959598   0.1890364   1.4712704   0.5998129  -0.2381540
   0.0514373   0.0644426  -0.0870901  -0.5182546  -0.0843442  -0.9949882
  -0.9347014  -1.1803875   0.3489432  -0.2775946  -0.1200348   0.4347443
   0.8153938   0.0126592  -0.1213179  -1.1003540   0.0400140  -1.0121245
  -0.1667691   0.0123694  -0.0635044   0.9488856   0.1919190   0.6361212
   0.0702284  -0.5528209  -1.2747316   0.1447733  -0.0415308   0.4372179
   0.4901643  -0.0880135   1.0362802   0.2958014  -0.1346161   0.4902752
  -0.4379969  -0.5630812  -0.0411452   0.7586956   0.4607786   0.3649872
   0.0279832   1.2589212   0.9429141  -0.1782622  -0.0425855  -0.1066041
   0.9329809   0.5757054  -0.1127013  -1.4536723   0.9016163   0.2013624
  -0.1051523   0.0187064   0.1616959  -1.1024190   0.0477013   1.0259837
   0.4385835   0.2049540   0.7621620  -0.0873717   0.0896132  -0.3424287
  -1.1365622  -1.1584373   0.5509854   0.0840411  -0.3956902   1.2968071
  -0.0332966   0.2311720   0.1344115   1.3844966  -0.2477362   0.4578337
  -0.7020145   0.0838607   0.1629596   0.1626535  -0.1135744  -0.1978957
  -0.3697706  -0.3339254  -0.0602849  -1.0265999   0.8935705   0.1599678
   0.2024858  -0.1789834   0.0796413  -0.0558153  -0.0304512  -1.1642846
  -0.8542051  -0.8342546   0.9868795  -0.2814279  -0.0454259  -0.0624264
  -0.4515359   1.2126483  -0.2412187   0.8992950  -1.0013093  -0.7002668
  -0.1414133   0.2564426   0.1339902   0.0195932  -0.8961936  -0.0743055
   0.1207217  -0.4085171  -0.1414280  -0.1690168  -0.0207679   0.0754019
  -0.6740143   0.4301102  -0.6206878  -0.4120339   0.1426705  -0.9378465
  -0.1575309  -0.1323153  -0.2706270  -1.0545615  -0.0081724  -0.7242889
  -0.2356135   0.3399989  -0.4549965  -0.0020351   0.3644730  -0.2345262
  -0.8088057   0.9181950  -0.2386795  -0.5204309   0.4578288   0.7118447
   0.1675163   0.0021890  -0.0167939   0.1073634   0.3634171  -1.0644433
   1.4112500   0.8781272  -1.3661095   0.0740929   0.4970398   0.3414456
  -0.0916160   0.4730337  -0.2117809  -0.8036183  -0.9414693  -0.0493776
   0.0475763   0.2121829   0.0626163  -0.9216302  -0.3927950  -0.5090967
  -0.9726748   0.7719409  -0.4964802  -0.0489555  -0.3607608  -0.0243996
  -1.1528396   0.1569800  -0.7239129  -0.1438442   0.2337247   0.3326738
  -0.0523379   0.0654852  -0.3380776  -0.9085701  -0.1089151  -1.7376236
  -0.5278512  -0.3119341  -0.6813475   0.1689628   0.1125434   0.0178401
   0.5022256  -1.1892415   0.2351792   0.4726475   0.4959143   1.2335147
   0.2100072   0.1182011  -0.1894715   0.3361286  -0.0651523   0.5158183
   0.8805137   0.7613546  -0.8795070  -0.2112076   0.1952119  -0.0087975
  -0.2417054   0.2058854   0.4794404   0.3413772  -0.7786295   0.5761582
  -0.1897001  -0.2431418  -0.0518469   0.1994445   0.7793569   0.2594452
   0.1283905   0.7498218  -0.4843819  -0.1261173  -0.2800395   0.3118232
   0.8737707  -1.1889924   0.2749212  -1.1335535   0.4405894  -0.6219709
  -0.0827462  -0.0683818   0.1789168   0.9844124   0.8421301   1.0175418
  -0.0307855   0.2992845  -0.7494257  -0.0159867  -0.2683640   0.2343876
   0.1899209   0.2605928   0.3355683  -0.3798150   0.4373491  -0.6138140
  -0.0885962  -0.0518702   0.1900995   1.3310594   1.1341335  -0.1055931
  -0.3646247  -0.7491663   1.1239392   0.5978377  -0.3195211   0.0864561
   0.1113085   0.5699701  -0.4897204  -0.1892909   0.1119285   0.2735392
  -0.0885487  -0.1361369   0.1832270   1.0178815   0.1705000  -0.6988096
   1.3168434   0.2351581  -0.2716908  -0.1394686  -0.4371556  -0.0520598
  -0.0338198   0.4739335  -1.5262705   0.5515619   0.0065493   0.6070692
  -0.2476372  -0.3088705  -0.4085416   0.1313618   0.1028869  -1.6935510
  -1.6111639   0.3265603   1.4476490   0.4931119   0.0854999  -0.1358413
   0.5517528   0.1700945   0.5076578  -0.1062969  -0.8751999  -0.4271624
   0.1139793   0.1766474   0.2499589  -1.1918663   1.0037155  -0.0614648
  -1.1988643   0.4352304  -0.3590247  -0.0734505   0.3307361  -0.0121556
   0.5738033  -0.8794505   0.3298675  -0.6609358  -0.8515007   0.4510931
   0.1495416  -0.0418283   0.1413599   0.1328542   1.0502976   0.6691532
   1.0559057  -0.5612659  -0.2754972   0.3601545  -0.1211344  -0.1810551
   0.0554353  -0.5091912  -0.5180314  -0.2490309   0.6041874  -0.3525453
  -0.2907136   0.1264294   0.1610468  -0.2990014   1.3663054  -0.1908484
   1.3650382  -0.5140361  -0.1952989  -0.2667538  -0.1766381  -0.1347436
   0.4973821  -1.0974229  -1.0314762   0.6662349   0.1865945   1.2048625
  -0.1692916  -0.0355619   0.0643494  -1.9706564   1.4462977   0.5969292
  -0.5052655  -0.3366059  -1.2353415   0.0831675   0.0583235  -0.0353977
  -1.2503932   0.4225400  -0.2853972  -1.1530417  -0.0763116  -1.6983379
  -0.0033465   0.0031980  -0.4590284   0.0821798   0.0147929  -0.2771212
   0.0652636   0.1416599   0.3740641   0.2254247   0.2819262  -0.2772484
  -0.3381877   1.2554323   0.6033214  -1.3008019   1.1072947  -1.6798907
   0.0306194  -0.3684714   0.0270098   0.1086750  -2.2437392   0.4326204
  -1.2031587   0.5886357   1.4931317  -0.3724682   0.0072846   0.0087740
   0.6601890   0.7897546  -0.1471173  -1.5170971  -0.2194898  -0.7261257
   0.1255215   0.0108701  -0.1406641  -0.8294046   0.7384432   1.1550412
   0.3633811   0.7626633  -1.2169880   0.1113812   0.1153959   0.0184763
  -0.1820309   0.0952397   0.2304818   0.1105984   0.6784678   0.4688457
  -0.1456583   0.3671514  -0.1166914   0.6551610  -0.7966514  -0.0340284
   0.3514919   0.0548776  -1.1926993   0.0433370  -0.4341805   0.0440925
  -0.2320134  -0.0200305   0.6556323   0.4295793  -0.6917390  -0.7751517
   0.3492092  -0.0923556   0.2786649   1.0598803  -0.2476606  -0.7074032
   0.9873765  -0.0059190  -0.4060019  -0.0549493   0.0462485  -0.0316388
   0.6336519   0.3345633  -0.3676117  -0.6289334  -0.0665722   0.7268312
   0.0073001   0.0626177   0.1388874  -0.4919750   0.8396180   0.7746482
  -0.1551255  -1.5276338   0.9750571  -0.1786080   0.2914455   0.0500023
   0.9005880   0.7253120  -0.8843370  -0.8455457  -0.5276123  -0.4264082
  -0.0933720  -0.4062850   0.2354286   1.2473327   0.4055548  -0.0627381
  -0.4777447  -0.4449095  -0.7474009   0.0725106  -0.2552859   0.1566622
   1.1961058   0.8621746  -0.6599576  -1.2642112   0.2145963   0.6468908
  -0.1928759   0.1220561   0.4294322   0.6826222   0.2474630  -0.1629236
   1.5766856   0.2023861  -0.1945591  -0.3262485   0.0817395   0.0748299
   1.0104250  -1.9447352  -1.0799397  -0.1193147  -0.8162724   0.4555012
   0.0627862  -0.0711717   0.1366097  -0.7019146  -1.6084376   0.4559142
  -0.6035476  -0.4527002   1.3243673  -0.2657843  -0.2124327  -0.1426453
  -1.0221491   0.0303803   0.7029277   0.0858263  -1.4629020  -1.3094898
  -0.0981223   0.2027242   0.0150485  -0.0537955  -0.1865717  -0.2640156
  -0.6558743  -0.9980152  -0.4975734  -0.2419663  -0.1419995  -0.0010666
  -1.0809554  -0.5932507   0.1431645  -0.2462531  -0.0296592  -0.0241049
  -0.0504093   0.0610060   0.1636560  -0.0814768  -1.7123690   0.7348769
  -0.9920274   0.9459371   0.2642666  -0.0191760  -0.0384953   0.2447604
  -0.2388890  -0.1217359  -0.2401927  -0.1195561  -1.0428203  -1.4827102
  -0.2892795  -0.1461778   0.1067120  -0.1271100  -0.1489008  -0.7630512
  -0.1055623   0.7779624  -0.4287989   0.0505160   0.0859038   0.3040228
  -0.0471704   0.1540759  -0.1784266  -0.0493986  -0.6031809  -0.0374641
  -0.0729269  -0.2014357  -0.3215320  -1.0294303  -0.7616964   0.0732303
   0.0016996  -0.3785721  -0.5926778   0.1124355   0.0693995  -0.1585964
   0.0060339   0.0527903   0.5327002  -0.1181207  -0.1830569   0.2105391
  -0.2359914  -0.1997110   0.0766633   0.3419254   0.7763549   0.5689849
  -0.9447928   0.6615869  -0.1867164   0.1902568   0.0945447  -0.2699187
  -0.2240661  -0.4282510   0.2496083   0.0954963  -0.2417157  -0.3375208
  -0.4278930   0.1680457  -0.2990421   0.6182228  -0.4718652  -0.3510260
   0.8025254  -1.2082567   0.3983097  -0.0405024   0.1816617  -0.0781024
   0.4721326  -0.6840716  -1.0645632   0.0992691   0.6510116   1.0246354
   0.2133184   0.0486615   0.3744105   0.0473685  -0.4598346  -0.6388356
  -0.2690303   0.5052554   0.8702417  -0.2641997  -0.1293716   0.1167067
   0.7421862  -0.9625581  -0.9997128   2.4211970   0.3265719   0.0677029
   0.1047424   0.0487854  -0.4780976  -0.3339630  -0.2154342   0.4887018
   2.2285192   1.1479061   0.0579043  -0.0226813   0.1000521   0.1521597
   1.0933347  -0.1203834  -0.2321010   1.4222842   1.0265034  -1.2823838
   0.0445330   0.0648730   0.1763102   0.4760682  -0.0479807   1.3582778
   0.9665670   0.0993645   0.8350111   0.0273012   0.0111015   0.1793532
   0.1654664  -1.1859413   0.2757379   0.2736157   0.6450287  -0.0972249
  -0.1859889  -0.1078814   0.0267345   0.8544877   0.0478538  -0.7877184
   1.0151103  -0.6032331  -0.6992194   0.1203194  -0.1856995  -0.0703543
  -0.2254235  -0.0831472  -0.3317721   0.5331993   1.5332885  -0.2077020
  -0.2138038  -0.0386688  -0.0553998   0.5731490   1.0878030   0.8749463
  -0.2675299  -0.9438671   0.0069660   0.0834297  -0.2211466   0.2264869
  -0.5051935  -1.1742868  -0.4252260   0.6367945  -1.7554004  -0.0508045
   0.1701822  -0.0843262  -0.0614474   1.4582651  -1.0527345  -0.9505589
   1.0459382   1.1631172  -0.8260891   0.1010487   0.2106052   0.1270330
  -0.1123397  -0.1121144  -1.6084828  -0.2682392   0.4453654  -0.2000819
   0.0223486   0.2500268   0.1212769  -0.8123431   1.4050576  -0.0571792
  -0.6840973  -1.4692002   0.1434501  -0.0176425  -0.0189763  -0.0778966
  -0.2431679   1.5387141  -1.3861645   1.5412309  -0.2571779   0.6028368
   0.0940597   0.0425738   0.2498613   0.1586468   1.7781578  -0.9660494
   0.2447200   0.2878299  -0.2938754   0.0444935   0.3960593   0.0771424
  -0.1786313  -0.5097838  -0.6114075  -0.8179960   0.3486466  -1.0903121
  -0.2881658   0.3668608   0.1185968  -0.4412253   0.6605422   0.0848254
   0.1574017   1.2573080   1.0844418  -0.0209652   0.0181766  -0.0110379
  -1.1637413  -0.4845705  -0.9299494   0.4903899  -0.5774439   0.0936002
   0.2574113  -0.2221466  -0.0288097  -0.5328310   1.1171142  -0.7225040
  -0.4871780   0.1941134   0.0836027   0.0769487   0.4427006  -0.2553437
   0.8185329   0.7010553  -0.4225669  -0.3059594  -0.4062537  -0.5545377
  -0.1907733  -0.3360681  -0.1976047  -0.9467357  -0.5525544   2.1934726
   0.5182926  -0.0045136  -0.7730427  -0.2494125  -0.6526714   0.2353735
  -0.3939602  -1.1758054   1.6523295   0.3999829   0.3298153  -1.1266726
  -0.0007601  -0.0028701  -0.0865828   0.2416944  -1.1782762   0.2569237
   0.4509822  -0.3087711  -0.6068908   0.0357670  -0.4800451  -0.3264583
  -0.3504962  -1.1570059   1.0541697  -0.1704043   0.3432645  -0.3959953
   0.3021401  -0.1029525   0.0921601  -0.3636344   0.8026953  -1.2355029
   0.4618468   0.7949081   1.0092814   0.1210064  -0.4080256  -0.2299266
  -0.9045718  -0.2301527  -0.2755089  -0.8922647   0.1693615  -0.4968016
   0.2717969  -0.0346949  -0.2914371  -0.0074532   1.7398632   0.4242744
  -0.6186247   0.3881954  -0.0438106   0.1486558  -0.0003760   0.3280383
  -0.4167881   0.0136283   0.6914566   0.9497589   0.7932390  -0.2923433
  -0.3683620   0.1036817  -0.2971424   2.0664633   0.8084723   1.3720892
  -0.0124829   0.6370923  -0.4732630  -0.1575197  -0.4050248   0.0128632
  -0.2737035   0.7008340  -0.4966373  -0.7504461   0.9810260   0.0564757
  -0.1633293  -0.1809821  -0.0309608   0.1602371  -0.4466135  -0.4093239
  -1.2201348  -1.5035867   0.5406751   0.0180127   0.0569709  -0.0906650
   0.0629015  -0.3544107   0.1733785  -0.3753330  -0.7182419   0.3427900
   0.2467986  -0.0924430   0.0849282  -1.1033480  -0.1975619   0.0785852
   1.4526700   0.6527412  -0.0713368  -0.3977007  -0.0988705  -0.1789065
   0.7440560  -0.1550866   0.0495308   0.2308632  -2.1006493   0.3720080
  -0.3110411   0.0252232   0.2079721  -0.6561242  -0.7772821   0.1586272
  -1.6575114   0.5245871  -0.5636755   0.2124925  -0.0059438   0.1982169
  -0.0873475  -0.2610132   0.1216788  -0.4004619   1.0166009  -1.3965839
   0.2602697   0.2258767  -0.1047863   0.6159444   0.7504872   0.1117874
  -0.2726891  -1.4105022   0.3065422  -0.2127750   0.0224999  -0.0720019
   0.0790522  -1.8320164  -0.8255345   0.0917271   1.8742343   0.3543709
   0.0223529   0.1447123   0.0958957   0.6599458   1.9779004  -0.4016004
  -0.4888627  -0.3395540  -1.2168364   0.0795324  -0.1944854  -0.3193835
  -0.1207837  -0.8866862  -0.6088686  -0.1491957   2.0836995  -0.7050801
  -0.0382369  -0.1414652   0.2025816   0.4932504   1.6679201   0.2860063
   0.9259616  -0.1028496   0.5296895   0.0448601  -0.1991402   0.0576571
  -0.0598898  -0.3499965  -1.0298882   0.7516055  -0.9285093   0.4419500
   0.1835121  -0.0671971  -0.0119672   0.7323779  -0.5880695   0.7763784
   0.1535153  -0.1480813   0.5272671   0.2059217   0.2863334   0.0801109
   0.5420675  -0.2932499   0.8650313  -0.4873861  -0.2819751  -1.6384298
  -0.0614711  -0.0046457  -0.0427571  -0.4559588   0.5296491  -1.4008844
  -0.8564171  -0.1772907  -0.1228872   0.1727011   0.0882024   0.1542069
  -0.4526943  -0.3705149   0.4914101   0.7667751  -0.0313911  -1.0982093
  -0.1460808   0.4380382   0.1994695  -1.5174031   0.3170507   0.2994949
  -0.1896208  -0.1878626  -0.6884055   0.0027961   0.0248221  -0.0382835
  -1.2284302  -1.2472900   0.4626413  -0.5589477  -0.6830640  -0.5672071
   0.0234744   0.0420963   0.0920768  -1.3314980  -0.5332653   1.7951354
  -1.0253376   0.2543119   0.7967787  -0.2042975   0.1122070  -0.0419482
   1.4583292   0.5653506  -0.1227663   1.0900693   0.7797553   0.8174582
  -0.1100026   0.0959991  -0.1135188   1.2615146   0.3401124   0.0185616
   0.5823129  -1.4453603  -0.7092781  -0.0932520   0.2218897  -0.0263450
   0.8134455  -1.4593432   0.3462630   0.5713260  -0.4967453   0.2946849
   0.3023841   0.0002556   0.0732844   0.0937049  -0.8999059   1.1107009
   1.6650763  -0.5138265   0.0171746  -0.5559814  -0.2989501   0.1513632
   0.6441767  -1.0924499  -0.4476293  -0.1142289   0.0265530   0.5676132
  -0.0897191  -0.0676559  -0.3589091  -0.7356558   0.3360315   1.5128210
   0.8144616   0.8767410   0.4464311   0.1265849  -0.3029424   0.1626594
  -0.2839790   1.6031652  -0.1434554  -1.2775998   0.4362720   1.1249321
  -0.0493291  -0.1393989  -0.1169379  -0.7134854   0.2241144   0.6550272
   0.9267971   0.2402697  -0.0286058  -0.2064635  -0.0321129  -0.0762934
   0.4903513   1.4005652  -1.2508706   0.8781252  -0.9950103  -0.1221886
   0.2634570   0.0052802  -0.1520249  -1.1236781  -0.5244994   0.6774369
  -0.2177680   0.7620077   0.0598852   0.0322538  -0.1847915  -0.0681286
   1.2002372   1.6998220   0.4941197   0.7964049  -0.5010437   0.5481603
   0.1128909   0.3360976  -0.2060865  -0.0933839   0.6911355  -0.0010479
   0.8656939   0.0190602   0.7601811  -0.3083811   0.1132040   0.3322953
   0.5727260  -0.2446278  -0.4443860   0.5157014   0.1276522  -0.0153699
  -0.0216270  -0.0757979   0.0896727   0.4645266  -0.3990182  -1.5786082
  -1.2681697   0.3994424   0.6887657  -0.1301251  -0.0894071   0.0580458
   0.3669683   0.4503239  -0.3129422  -0.1187673   0.8631310  -0.5112054
  -0.0115699  -0.1754539  -0.4271438  -0.0048265   0.3346686  -0.0098184
  -1.1391258   0.2407008   0.7192299   0.1501320  -0.2532309  -0.0223990
  -0.7585073   0.0777780   0.7570859   0.1408272   1.3093051  -0.4758792
  -0.1432918  -0.2674111   0.1520530   0.8680549   0.0330348   1.0482443
  -0.4619547  -0.5846249  -0.9091476  -0.0028582  -0.0605594   0.0040356
  -0.3568292   0.1420608   0.2770715   0.2835165  -0.6098052   0.3714098
   0.3430061   0.0804606   0.3166551   1.4209123  -0.1229557  -0.4978628
  -0.0430489  -1.4501751   0.2248108   0.1444765   0.1494498   0.1172729
  -1.6482772   0.3946852   0.5898330  -0.8448075  -0.4807343   0.9218153
   0.1618473   0.1113811  -0.2516893  -1.0334342   0.9441907  -0.2420398
  -0.4777860   1.0045039   0.8744895   0.0427863   0.2580734   0.1249713
  -0.0292984  -0.3184903   0.1230109   0.4689261   2.0206115  -0.8473674
  -0.1804493  -0.2557350  -0.0149785   0.5688148   0.8700973  -1.0148580
  -1.1240980  -0.4221212  -0.1299496   0.1763877   0.0115358   0.1688271
   0.1017771   0.8204785  -0.3145321   0.1777941   2.2611864   1.3291192
  -0.2518366  -0.1346033  -0.2374465   2.5588891  -0.8798501   0.6603253
  -0.8226759   0.6833497   1.4934437  -0.0269954   0.0849158  -0.0324943
   0.8204630  -0.4825882   0.6152626  -0.3772479   0.2822004   0.1587430
   0.0704176  -0.1823573  -0.1604580  -1.1105681   0.0234234  -0.7909259
  -1.4474562  -0.1556639  -0.1493763  -0.2189631   0.3200001   0.1173881
  -0.8814776  -0.3791640  -0.9639702  -0.6939410  -0.6306761  -0.2713973
  -0.5137699   0.0585456  -0.4017336  -1.1171052  -0.8759050   1.5678942
  -0.0059107  -1.1803712  -0.1510471   0.2613206  -0.2774948  -0.2768095
  -1.2221259   0.0192476  -0.1082801  -0.0627301  -0.2325952  -0.2011491
   0.0012393  -0.1919558   0.0148838  -0.7937327  -0.6376239   1.0353579
   0.5829878  -0.0899659   0.2887379   0.1443372  -0.3176590   0.2514987
  -0.1396783   0.5068978   0.1661256  -0.7602980   1.0330955   0.1978049
  -0.2887658  -0.0055521  -0.0500035   0.0329703  -0.4534151  -0.1505071
  -0.2132092   1.4864786   0.2085420   0.0421040  -0.0509259   0.3549285
  -0.1627537  -0.2508086   0.0790536   0.2014176   1.4467878   0.4516253
   0.0907695   0.1619544  -0.2205607   0.7468723   0.5875624  -1.5943925
   0.1734227   1.4730288   1.4408586  -0.0265412   0.4157158   0.1134878
  -0.0369987   0.9009196  -0.3137871  -0.7497503   0.2073533   1.7288992
   0.1718297  -0.0111503   0.1571051   0.4257501   0.4440922  -0.1087451
   0.9203084  -0.5413694   0.2034974   0.0200781   0.0434757  -0.3817343
  -0.9304163   0.3342681   1.1024319  -1.2125307  -1.3855176   0.0225280
  -0.1271882   0.0747235   0.0851849   0.1035314  -2.0277678  -0.5554556
  -1.2307901   0.3082202   1.4922678  -0.0039536  -0.2429232   0.0687608
  -1.7482418   0.5288837  -0.7095802  -0.7481074   0.7633732  -0.2656542
  -0.1777950  -0.0264871  -0.3711222   1.7919140   0.1175170   0.1268820
   1.6632900   0.1263214   0.3784481   0.0681661   0.1170732   0.3011386
  -0.1447533   0.4190662  -0.7201351   0.5607783   1.7828470   1.0389922
  -0.0550951   0.1705455  -0.1686882   0.5956312   0.8500505  -0.2497417
  -0.6380867  -0.4077524  -0.0430602   0.2661894  -0.2254679  -0.0310609
   0.5346721  -0.1505586   1.2561656   0.4602602  -0.0891551  -0.8494468
   0.0378867   0.0562659   0.0959750  -1.1329684   0.3945975   1.6588052
   0.4936445  -0.8525374   0.2351311   0.2017685   0.1291699   0.1716311
  -0.2716289   0.4028348  -0.9660473   0.3364883   0.7262666   1.5149765
  -0.0881670  -0.2672693   0.0458565   0.0599517  -0.0758111   0.2015545
   0.5053740  -0.2769452  -0.2195881   0.5257709   0.1967802   0.1304384
  -0.8350846  -0.0285206  -0.3555520   1.0206442   0.4207970  -2.2847107
  -0.3023403   0.1214877  -0.0348671  -0.1435334   0.6534518   0.0559312
  -1.6908548  -0.2959395  -0.6229155  -0.1833033  -0.1233685   0.0164279
   0.9773533  -0.3772760   0.5039773   1.2823046   0.1427838   0.0890984
   0.4683283   0.1864538  -0.1365369  -0.3818105   1.6325145   1.0328164
  -1.0096379  -0.8577868   0.9752653  -0.2118653   0.0385534   0.1482852
   0.9632731   0.6541786   0.1018087  -0.2304826  -0.1026390   0.7381296
  -0.0795505  -0.1912680  -0.0393374   1.2240715   0.2798216  -1.3069810
   0.2246372   0.4624721  -1.5268395   0.0049642  -0.4032519  -0.2620716
   0.3064565  -0.6660097   1.2569209   1.9288479  -0.1178948  -0.9254960
  -0.2452854   0.0520196  -0.2447470  -0.7917904  -0.0591469   0.0679138
  -1.0962045   0.5891734   0.0319807  -0.1224514   0.1519720  -0.0786177
   0.9433485  -0.2278081  -0.1234402  -0.6234645   0.5764121   1.9856383
   0.3112684  -0.0600407  -0.0014376  -0.9860147   0.6562248  -0.7383729
  -1.2150516   0.3260068  -0.4767064  -0.1843299   0.2857164  -0.1121429
  -0.8379209   0.6238498  -1.6793822   0.6115244   0.9544434   0.0935430
  -0.2315441   0.0089016   0.2854961  -0.2931090  -0.6514494  -0.2326645
   0.5059267  -0.0883126   1.6138476  -0.1362285   0.2426905   0.0615954
   1.0753497  -0.3477267  -0.0058392  -0.3223371   0.6594942  -0.1418497
  -0.1103609   0.0106347   0.0491161  -0.4332639  -0.6975728   0.0515924
   1.5169205  -0.8894479   0.0486920   0.2993171  -0.0721515  -0.1270870
  -0.2525845  -0.1530071   0.4189245   0.1405810  -0.6286449  -0.5005367
   0.0993220   0.2718220  -0.1249867  -0.3310347  -0.8486947   1.7369179
  -0.2445286   0.8372645   1.3623459   0.2155045  -0.1375004  -0.1209531
  -0.7460420   0.1149249  -1.9784778   0.2026054  -0.1464937   0.3806934
  -0.2652289  -0.1609741  -0.1749103   1.2448387  -0.1661470   0.4173525
   0.3401561   0.0212185   0.5009157  -0.1586153   0.0103158  -0.0699337
   0.6475805   0.8790826  -1.9239208   0.2787348   0.9661253  -0.7087267
   0.1685615   0.1178861   0.2734166   0.0609436   0.2512248  -0.7365694
  -1.3183572   0.8168536   1.0448905  -0.1856196   0.0979079  -0.0316105
  -0.2120522  -0.9301688   0.0136308  -1.1199748   0.2550040  -0.4153762
   0.0017763  -0.3329179  -0.1481483  -0.1372842   0.2999602  -0.2691189
   0.7865518  -1.6598048  -0.7313204  -0.0589131   0.0388274  -0.1305180
   0.1445033   0.3090551   0.3033704   0.3635017  -0.4531556   0.8409657
   0.0770457  -0.0482909   0.0099074   0.4077115   0.0154072  -0.4030182
  -0.5678817  -0.3673378   0.5428979  -0.1590766   0.3062208  -0.0048298
  -0.2458987  -0.6956286  -0.3235286  -0.3331682   0.0622079  -0.5938562
   0.0323196  -0.1819761  -0.0391868   0.2657987  -0.4385058   0.2530123
   0.0808542  -0.7762329   0.8497775   0.1512336  -0.3481463  -0.0309905
   0.8099555   0.5644931  -1.2378540  -0.4837559  -0.1715825   0.3248519
   0.1624774   0.1628531  -0.0700468  -1.3130501   0.2806754  -0.6970235
   0.5973797   0.3923080  -0.2816916  -0.2406822   0.2420609  -0.0752660
   0.5910907  -0.9571411  -1.0726484  -1.1298642  -0.2616889  -0.7987668
   0.2496678  -0.1534445   0.2885890  -0.5989928   0.9531627   0.2229406
  -1.0314664   0.6532708   0.4593638   0.0440279   0.1713266  -0.1597227
   0.4039788   0.1600295   0.5976756   0.4757148   0.7147420   0.6141470
  -0.2658481   0.3957341   0.1033925   0.0762613  -0.6404262   0.1288731
   0.0539270   0.1026234  -0.1280123  -0.0950862  -0.0608049  -0.0560113
   0.2763197  -0.3966028  -0.5458480  -0.1977249   0.7962659   0.1509325
  -0.0748416  -0.0686317   0.0263661   0.1216073  -0.1036718  -0.7411710
  -0.6836716  -0.8793990   0.3346127   0.0849354  -0.3132249  -0.0122645
  -1.2967847  -0.5333557  -0.8484960   0.6220083   1.1303144  -0.4775902
   0.0183425  -0.1622957   0.3635760  -0.2882361  -0.0022866   1.3782023
   0.4041418  -1.1166577   0.0503958  -0.3235568   0.1778143   0.1171713
  -1.5724411  -0.2191364   0.9382100   0.4610658  -0.0598895  -0.6537529
  -0.2330018   0.0578065  -0.3321049   1.5225426   0.3655167  -0.1457937
  -0.6578128   0.7653652   0.9625770   0.1853001   0.0841390   0.0549821
  -1.0503088  -0.3451181   0.1641285  -1.6271282  -0.0584169   0.1123538
   0.1085636   0.2618588   0.1000233  -1.0812307  -0.0477692  -0.2401773
  -0.9718987   0.4120876   1.0194007  -0.2861645   0.2409295  -0.1014539
   0.0111202  -0.1513542  -0.3338881  -0.1272679   0.9479802  -0.9400527
  -0.0854041   0.1105376  -0.0824567  -0.5843471  -0.6713986   0.2162890
  -0.3763256   0.5206513  -0.2081791  -0.1934133   0.0313638  -0.3082882
  -0.8200229  -0.8433096   0.9269376   0.0664443  -1.2664635   0.4611508
  -0.1591094  -0.2529790  -0.0134020   0.0836828   0.2933009  -0.2318448
  -0.4065424  -0.5714312  -0.3068963   0.0609837  -0.0154033   0.3888084
   1.0912519   0.5303506   0.3379077   0.4211067   0.7483680  -0.1281832
  -0.0396883  -0.0461115  -0.2604425  -1.3164133  -0.3734510   0.5829390
  -0.4675335   0.2422346   0.1958598   0.1433771  -0.1296501   0.0200752
  -0.1332825   0.2070492   0.5824589   0.7109905   0.2038700  -1.0381546
   0.0208255   0.1298013  -0.2574283   0.4119590  -1.0520986  -0.4243065
  -0.1942772  -0.1503013   0.0565100   0.0607138   0.0856763  -0.3029211
  -0.2456542   1.4908724  -2.7443611  -0.6130988   0.1043732  -1.3142845
   0.2673281  -0.2113728   0.1567954  -0.0289939   0.4197712  -0.7237997
  -0.2969272   0.2750498   1.6956035   0.1463997  -0.2679682  -0.0957007
  -0.7695120  -0.5756780   0.2414958   0.9947549   0.2824877   0.6114198
   0.1051811   0.0083327   0.0335745   0.6728084   0.7368846  -0.9349377
  -1.4823454   0.4306062   0.8150136   0.0319271   0.2224948   0.1265862
  -1.3286874   0.2553635   0.2947160  -0.7043439  -0.0830980  -1.2409815
   0.0579420   0.4286720   0.2714045   0.4862432  -0.2214839  -1.0082519
   0.5776850   0.4040217   0.3283189  -0.2412347  -0.0607971   0.2100764
  -0.2798034  -0.6427425   0.5755857  -0.5780374  -0.4592013   1.7739037
  -0.2568417   0.4387417  -0.2164613   0.1419709  -0.3178920   0.2887635
   0.2959538   0.1783880   0.0208142   0.2057375   0.3291075   0.1423514
  -0.8463046  -0.8709777   0.8812263   0.5603016  -0.7241292  -0.0119621
   0.1696497   0.2526124   0.0504280   0.0351423   0.3055172   1.7826164
   0.0353991   0.1848614  -0.8333629   0.4632313   0.4198456   0.1964771
  -0.3181572  -1.1605655  -0.0189619   0.3611146  -0.2225460   0.6820291
  -0.0649283   0.1416770  -0.0038328   0.1507133  -0.3265080   0.3150211
  -0.4553903  -0.8347126   0.6213718   0.1396443   0.4687254   0.3071170
  -0.7145135   0.4974308   0.8428437   0.5877173  -0.3876391   0.2127813
   0.1134723   0.4320378  -0.4658082  -2.0603199  -0.6111032   0.1621994
   0.2045293  -0.6161187   0.1335254   0.1762782   0.4286552  -0.1053070
   0.2726242   0.1382246   0.0265560   0.9075072   1.2893907   0.3659129
   0.1131434   0.0523196  -0.2642833   1.3362829  -0.6859287   0.8849305
   0.0986399  -0.0299720   0.0837055  -0.0867142   0.1771471   0.0059872
  -1.3951251   0.5956031   0.6532494  -0.5147718   0.8093469  -0.9967226
  -0.0817792   0.3290820   0.1422795   0.2500721  -0.5328678  -0.1174342
   0.1898542   0.0182084   1.5431337   0.0947724   0.1208746   0.1091127
   0.8533455  -0.9392768   0.6501807  -0.7719481  -0.6129769  -0.0030655
   0.0723027  -0.2381592  -0.0433869  -1.3858456   0.9496411   1.6885590
  -0.0721421  -0.1448851  -0.4701141  -0.1622295  -0.0328619  -0.1697866
  -0.0005553   0.5560984   0.7935090  -0.0388041  -0.7399991   0.7192301
   0.0169075   0.0229781  -0.0448539   0.2064988  -0.3241977   0.3206760
   1.4354018   0.3571274  -1.7561558   0.2089246   0.0021700  -0.0797910
   0.1045392   0.0479042  -1.3454168   0.4627058  -0.7741020   0.2430586
   0.0367835  -0.2753347  -0.1336296   0.4558345   0.0123129   0.3905714
  -0.2889328  -0.0833654  -0.0460584  -0.2509441   0.3636562  -0.1930198
  -0.7294461  -0.7363144  -0.6040110   0.3447364  -0.0454589   0.2743682
   0.0230212   0.3979151   0.1087969   0.6999054   0.0192528   0.5732832
  -0.3094274  -0.8370449  -1.0770881  -0.1885255  -0.2248696   0.0525372
   0.5879489  -0.1210055   0.0883362   1.7016727   0.4593340   0.5160632
   0.1526429  -0.0839078   0.0166236   0.5550523   0.6962614   0.2847845
   0.4914134   1.2096622   0.0480115   0.4378111  -0.1993916  -0.0981478
  -0.7618506   0.2275665  -1.1155257  -0.0072485  -0.4597333  -0.4004236
  -0.0915049   0.0091469   0.3002178  -0.7748882   0.2705037  -0.1716951
   0.3686075  -0.7056035  -0.7663987   0.0323963  -0.1365311  -0.3530633
  -1.3644863   0.7523116  -0.2206624   0.0096601  -0.2087988  -0.4117303
  -0.2527392   0.3623124  -0.1540995  -0.1520653  -0.1100891   1.4950682
  -0.7716126  -0.2626885   0.6404439  -0.4476619  -0.0882559  -0.2236566
   0.6574763   0.2745314  -0.0966842  -1.4555295  -1.0474877   0.4813307
   0.2657611   0.0613888  -0.0263522  -0.2548238  -1.4044287   0.1473055
  -0.7341179  -0.8922636   1.3301794  -0.1885104   0.0056482   0.2400678
  -0.0233683  -0.6644502  -1.0446167   0.5190839  -0.9316479   2.2992756
   0.1649649   0.0289609   0.2163243  -0.1209251  -0.3192598   0.3972887
   1.1993546   0.4709026   0.1930569  -0.1025889   0.2083733  -0.2492578
  -0.6823348   0.1879523  -0.0113313  -0.6867372   1.1508527   1.1013298
  -0.0821626   0.1023809   0.0536372   0.1394407   0.7138848  -0.2307812
   0.2274374   2.1684778  -0.4934385   0.1393861  -0.0391839   0.1075056
   0.2809463   0.2008055   0.0984371  -0.0136955  -0.2321713   0.6813777
   0.1357256   0.4173827  -0.2741360  -0.0132017  -0.0348823  -0.6466102
   0.6519927   0.0599224   0.7110778   0.0314898  -0.2781828  -0.1098336
   0.0461254  -0.6996837   0.4006440   0.3223043  -0.1244704  -0.0010325
   0.1698463  -0.0996746  -0.2805813   0.3168930  -0.6419251  -0.5979950
   0.7922575   0.7586332   0.2629819  -0.3624074  -0.2361619   0.0387194
   0.4289250   0.5220842   0.3403278  -0.9280114  -0.3231304   0.1355747
   0.1058996  -0.3340615   0.0020002   0.3205418   0.0067473  -0.5203278
   1.4192627   0.3630319   0.0364461   0.1689449  -0.0286289   0.0564210
   1.6034339  -0.6690740   1.3950579   0.8249218  -0.1569047  -0.1286144
   0.2686826   0.2157865  -0.2034242   0.8008524   0.2515210  -0.4496854
  -0.0610709   0.1013777  -0.8839902   0.2280421   0.1304273   0.3827070
   0.3293305   0.6095397   0.5414397  -1.1940376  -0.9116310  -0.0465612
   0.0175552  -0.0463212  -0.2438543  -1.3072790  -0.9369531  -0.0796150
   0.4215422  -0.0466263  -0.4677003  -0.1794637  -0.1066752  -0.4696471
  -0.3393630   0.2215007  -0.1527319  -0.5813756   0.9328093  -0.5405699
  -0.0218525  -0.2395296  -0.0616952  -0.3478421   0.4814098   0.1125406
   0.8198848  -0.7523430   0.5403352   0.0523375  -0.2272403  -0.0231419
   0.0886993   0.9699964   0.7918847   1.0433824   0.3116763  -1.4028186
   0.0588265  -0.1560608   0.1476623  -1.3604839  -0.9877093  -0.2159224
  -0.2244038   0.0327846  -0.4120348  -0.1595913   0.0923253   0.1835589
  -1.3163651   0.1014588   0.3046957   0.2404697  -0.1640222  -0.2150429
  -0.1343100   0.3746697   0.0528413   0.0758837  -1.8655849  -0.0953132
   0.6156221  -0.0587723  -0.3856221  -0.0191203   0.0777720  -0.3155043
  -0.1679310   0.0832616  -1.3383705  -0.6656594   0.0827516   0.6306634
  -0.0920645  -0.2454240  -0.0008197   1.5443899  -0.7766581  -0.0779234
  -0.0063400   0.5171886   0.2577200  -0.2596990  -0.0532104  -0.2447439
   0.9595079  -0.0826101   0.3821240  -1.5267483   0.9934859  -0.1810136
  -0.1841729   0.0931254  -0.0279381  -0.5278321  -0.3650002  -0.0362454
   0.8452583   0.8102975   0.2746938  -0.0543671   0.1000082   0.2664445
   0.5178952   0.5645690  -0.4133251  -0.1667342  -0.6325235  -0.4157086
  -0.0497456  -0.1044480   0.0468801   0.1224240  -0.3048507  -0.0910689
   0.0130743   0.0446640  -0.7105884  -0.0357529  -0.2386290   0.1946157
  -0.1849801  -1.4767046   0.2712562  -0.2235576  -0.4452504  -0.9896050
   0.2944195  -0.3735551   0.2659994  -0.5143448  -0.5779642  -0.9969154
   0.0871605   0.2888127  -0.4687897  -0.3117591   0.0004164   0.3295152
   0.6787970   0.2613660   1.1421545  -0.0070798   1.5824071   0.0853076
   0.0925865  -0.0644095   0.2705316   0.0267251  -0.8353141  -0.9468831
   0.2915153   0.5764546   0.8233342  -0.0996175   0.1344830   0.2031461
   0.9117269   0.8540901  -0.2876144  -0.8330305  -0.4384944  -0.5178269
   0.2396250  -0.1566255  -0.2026698  -0.5884421   0.5187740   1.3809371
   0.1401351  -0.1181790  -1.3561485  -0.3891985  -0.0306403  -0.0851683
   0.4285464  -0.1763679   0.4203136   0.1653654  -0.9729348  -1.2835991
   0.1978570  -0.0691626   0.3837664  -0.4820120   0.0495632  -0.7221720
  -0.1588711  -0.6278420  -1.0412108   0.0648263  -0.0307506   0.0168735
   0.3308442   0.7893842   1.2775422   0.2055821   0.4819619   0.1856222
   0.1998712   0.3490661   0.3908747  -0.3828461  -0.7165430   0.5713066
  -0.8770529   0.9084683   1.0993791   0.1453065  -0.0099204  -0.4634413
   0.5938950   1.0915736  -0.7734837   0.5148913  -0.8178617   0.7736302
   0.2702912  -0.1852461  -0.2018411   0.2028031   0.1250254   0.1222142
  -0.3215342  -0.9066671  -0.3388602  -0.0053230   0.0315179   0.2701477
   0.5403145  -0.6904748  -0.2015808  -0.2346236   0.2854985   0.4411909
   0.4438400  -0.1021727  -0.0747377  -0.5111078  -0.5430278   0.1347478
   0.2764361   0.0407902   0.1781745   0.1511376   0.0429644   0.0717890
  -0.0375657  -1.2791024   0.2080074  -0.9414751   0.5376049   1.8658407
   0.2598058  -0.1436955  -0.0639203   0.0175094   0.6613228   0.1969754
   0.4766604  -1.5024916  -0.4779672   0.0269469  -0.1046189   0.0266126
  -0.4765977  -0.2829343  -0.4403804   0.6129853   0.6494127  -0.0375169
  -0.0844223  -0.2940058  -0.1068410  -1.0137640  -1.1927294   0.4222028
   0.0234056  -0.3345837  -0.7328972   0.1195334  -0.4155177   0.0624540
  -2.2325552   0.4085352   1.5983294  -0.2507243  -1.0317641   0.8212661
   0.0313063   0.0533570  -0.2684730  -0.5403406   0.1644469   0.9929385
   0.4052823  -0.2643824  -1.2610426   0.1651607   0.3605224  -0.1356360
   0.4013974   1.1131135   0.5677090  -0.5501451  -0.2026151  -0.7993151
   0.1030509  -0.0450341  -0.0351731   0.8727089   0.2458348  -0.7021165
  -1.6375970  -0.4496521  -0.5948305   0.1404342  -0.1062178   0.1128896
   0.2812556   0.0545184   0.8750523  -1.0484020  -1.1992661   0.5925584
  -0.1673748   0.2181736  -0.2068558   1.5073429  -0.2852858   0.1416250
   0.0002229  -0.4653693  -0.0495643   0.0934312  -0.1093541  -0.1420179
   1.0594467  -0.8878139  -0.5236525  -0.8597606  -0.3196748   0.4236306
   0.0109886   0.0870881   0.2283955   0.3282288   0.0022408  -1.1657278
   0.8292713  -0.9780764  -0.2724787  -0.0129959  -0.2547771  -0.2575287
  -0.7331106   0.1361810   0.4051474  -0.3564116  -1.2861687   1.0443995
   0.1311534  -0.0586643   0.0173403  -0.5188725   1.7008167  -0.2188432
   0.5981401   0.5924075  -0.3519768  -0.3078114  -0.1251636   0.2253148
  -0.1310343  -0.3272710  -0.2771648   1.4830677  -1.3496000  -0.4130159
   0.0124915  -0.1594610  -0.1946674   0.5401733  -0.0610758   0.2662376
  -0.1672635   0.9513753  -0.4051130  -0.0659474   0.0597262  -0.2199475
  -0.0366793  -0.2149443   1.6953533   0.8209695  -1.0633681   0.5971771
  -0.2006441   0.0575530   0.3410421   0.1844082  -0.3275059   0.8806482
  -0.1176175   1.0749390  -0.6871646   0.0398261  -0.1262365   0.3410224
  -0.6378675   0.1427661   1.1749434   0.1211694   0.7060467  -1.0485087
  -0.2173686  -0.0038436   0.0329302   0.2405873  -0.1673336  -0.0070872
   0.9477732  -0.4979330   0.3026790  -0.0202494   0.1146238   0.3280830
  -1.7154731  -1.6344367   0.0064203   0.3542060   1.0844914   0.4906819
   0.1143914   0.1379252  -0.2329600  -0.4925829   0.1980247   0.1300130
   0.1409225   0.2463868   0.0233001  -0.0345988   0.0954096   0.1972497
  -0.1711872  -0.4067519   0.1104507   0.8016616  -0.8432508  -0.4352507
  -0.2266805   0.1026241   0.4973920  -0.3964598   0.0256278   1.4474257
   0.2860089   0.7593236  -0.5124613  -0.3922670   0.1568464  -0.0285378
   0.1830641   0.0259656  -1.4327681   0.2887128   0.6948102   1.0136691
   0.0368562   0.1729651  -0.0433620   0.7233601   1.0204108  -0.5201229
   0.3992570  -0.2981923   0.2197319   0.3561933  -0.0938636   0.2207662
  -0.5999981   0.7363159  -0.3145575  -0.0203403  -0.3250334  -0.7763116
   0.0140090   0.0294225   0.1770453   0.0580161   0.7103309  -0.4003035
  -0.0926748   0.3204713  -1.0373673  -0.1677933   0.2853206  -0.1999993
  -0.2417240   0.3697128  -0.7252918  -0.4198258  -0.2457173  -0.5529833
  -0.0683141   0.1198228   0.0780220  -0.1235704  -0.1738078  -0.5347660
   1.9754665   0.2689123  -0.3614879   0.3334892   0.0497517   0.1426349
   0.7615509   0.4370261   0.4752403  -0.3955786  -0.0764432   1.2244285
   0.4333367  -0.3055893   0.3104787   0.5857141   0.9914366  -1.3491286
  -0.0481187   0.8691746   0.6791439  -0.0071496  -0.2240217   0.0282223
   0.8619450   1.3445345  -0.2030885   0.4586941  -0.6038378   0.3963316
  -0.0840054   0.1075521   0.3192891  -0.4914527   1.3479845  -1.2083714
   0.9083501  -0.3729573  -0.1764179  -0.0549028   0.1840348   0.1563416
   0.4152411   0.2550906   0.1426338  -0.8797821  -1.3769558   0.1150213
   0.1936878   0.1779603   0.1475958   0.6896102   0.3517452  -0.4150880
  -0.0703299   1.5420915   0.9360969   0.0420646  -0.2334366   0.0929737
  -1.5001795  -0.1798217  -0.6190212  -0.1281249  -1.1186932   0.4030898
   0.0296624   0.0997818  -0.1761776  -1.0352194  -0.1969042  -0.7379712
   0.3872524  -0.3685050  -1.3565806   0.0636381   0.3316378   0.1450881
   1.0578139  -0.2889913   0.7101170   0.9464386   0.1028176   0.1955573
  -0.0402040   0.0146649   0.0715854  -0.0304447  -0.4127838  -0.9712532
   0.3662799  -0.7178805   0.8759102   0.1996946  -0.0398025  -0.4042328
  -0.2847396  -0.4796374  -2.1747762  -0.1853264  -0.8618204   0.9070130
  -0.1867926  -0.4556546  -0.0059753  -0.6634441  -0.4337116  -0.2648856
  -0.2807500  -0.8251811   0.4948612   0.0841511   0.1820178   0.0603781
   0.2474327   0.0990371   0.7640427  -0.9783642  -0.0924650  -0.7310755
   0.2488856  -0.1535996  -0.0697778   0.9858818   0.4230002  -0.4920444
  -1.3268317   0.1426272   0.1123236  -0.4698288  -0.1539882  -0.2328139
   0.0873664  -0.0273087  -0.7629914   0.0944912   0.4285484  -0.5868934
  -0.0450792  -0.1620358  -0.1190002   1.5186766   0.4875551   0.9560160
   0.5256045  -0.2091135  -0.6943129   0.1690998   0.0001227  -0.1829422
  -1.1186568  -0.5919603   1.6170742  -0.7875453  -0.6434405  -0.1370381
   0.0603340  -0.3465175  -0.3218240   0.7585861   0.8210797   1.0822237
  -0.1636577   0.9788750   1.6611819  -0.2839004   0.2187948  -0.0671823
  -0.2863216  -0.4438852  -0.3217640  -1.0333290   1.1684997   0.8766850
   0.2480958   0.2600022  -0.0183519   0.0416194  -0.6730490   0.4827403
  -0.3638333   0.3453023  -0.6937271  -0.0683912  -0.2332208   0.0098953
  -0.3415264  -0.2166291  -0.0059176  -0.7233416   0.1991392   0.5747476
  -0.2770938   0.0608901  -0.1088204   0.4488738   0.0694005   0.4029746
   0.7206706   0.2491323   1.1843108  -0.5655794  -0.0850041   0.2964471
  -1.5972944  -0.7749847   0.4587514  -0.4451163   0.3579086  -0.0931686
  -0.1105721   0.0565914  -0.1142533  -0.5572794   0.4607564   0.3797276
   1.3492446  -1.0667355  -0.4920583   0.2586618  -0.0149376  -0.3488233
   0.6056120  -1.1065197  -0.7607679  -0.0117810  -0.9959942  -0.4099990
  -0.0388807  -0.2202651   0.1387644   0.8916193   0.8539927  -0.7645010
  -0.7758898  -0.9771294   0.1481131   0.1762322   0.0400471   0.2155807
  -0.2621978   0.6459258  -1.2572480   0.0185582  -0.4893714  -0.9966042
  -0.2163425   0.1853942  -0.0548639  -1.3147479  -0.9096105  -0.1129429
   0.4778002  -0.2283074  -0.9785168  -0.1267366  -0.0134549   0.1179062
   0.5800387  -0.2550490  -0.1755497  -0.1053739   0.7912043  -0.4667073
   0.0091734  -0.0281304   0.0256764  -0.5770454   0.3379632   0.2012930
   0.5661955  -1.0500836   0.2019279   0.1376627   0.1487512   0.0565556
   0.8478388   0.5637594   1.1712317  -0.0154997   1.6579274   0.3053745
   0.3151740   0.1552594  -0.0159000  -0.8807258  -0.4864418   0.1175211
  -3.1258786  -0.4907584  -0.0189338  -0.2184137  -0.4892349  -0.2862731
  -0.6112866   0.5795883   0.6169386  -0.1099310  -0.4714131   0.5590154
   0.2547215  -0.1839249   0.1730113  -1.0315844  -1.2396140  -0.2183383
  -0.6228563   0.1410682  -0.2991426  -0.0668364   0.0075155   0.3409363
   0.1197146  -0.2042514   1.0065346   0.0469540   0.0512808  -0.8089857
  -0.3265910  -0.0585828   0.0201490   0.4183523  -0.0313745  -0.3014828
  -0.8658974  -1.3431360  -0.5372903   0.0527261   0.3035528   0.1256573
  -0.4111065   0.0409926   1.2307110  -1.2316197  -0.5115884  -1.1956220
   0.1493395  -0.1167862  -0.0574543  -0.5640431  -0.8689080  -1.0511885
   0.6276242   0.5190024   1.2994220  -0.0768819   0.0658876   0.1240003
   0.2007757  -0.6011396   0.7668483  -0.7463483   0.5415122   1.2454700
   0.0415046  -0.0851504  -0.4358952  -0.3049990  -0.3901632   0.5592865
  -0.2604201   1.0119320   1.2071029   0.1261760  -0.2361155  -0.0661394
  -0.3745605  -0.1659205   0.2079023  -1.0290976   0.0238526  -1.0255021
   0.0542123   0.0679721   0.2778733   0.7976944  -0.1955021   2.0031284
   0.3607445   1.0053855  -0.0927861   0.1015329  -0.1402103  -0.1381497
   0.1724335   0.1231622   0.4750884   0.0096341   1.5730084  -1.4136148
   0.0343056  -0.1268634   0.2751628  -0.4247417  -1.6951229  -0.6669498
   0.3133707   0.3102530  -0.1416807   0.1008857   0.3268261  -0.3776881
  -0.7202559  -0.0770451   1.1059695  -0.4089976   0.1212157  -1.2372405
  -0.2846408   0.1114304   0.0116990   0.6747280   1.0207663   0.3914605
  -0.0170344  -0.0730353  -0.8883858   0.1989737  -0.1487971  -0.1237939
   0.2115906   1.5756308   0.2450968   0.7021134   0.9493942   0.6017006
  -0.2411544  -0.1210589   0.0823025  -1.0474962  -0.7482332   1.9292068
   1.0382645   0.4626168  -0.6779810  -0.1208612   0.0679510  -0.1580087
   1.3781584  -0.1104285  -0.2789545  -0.1025369   0.2439264   0.5906098
  -0.1147901   0.0756601  -0.2422324   0.7612500   0.4488010   0.0230289
   0.3756051  -1.7928375  -0.2685971   0.0430983  -0.2313446   0.0842442
   0.0144343  -0.4461149   0.2624268   1.0513132   0.6346886   0.3869464
  -0.5250686   0.1901090   0.1585331   0.6331905  -0.4251733  -0.7338550
   0.7228679  -0.0799376  -0.1651711  -0.1207141  -0.1963375  -0.0356250
  -0.3820350  -0.9456467   0.0259681  -0.5794037   0.4462649   0.4372472
   0.0457660   0.2841329   0.1749620   0.8552186  -0.7987561  -0.8899000
   0.7394890  -0.7245991   0.4238375   0.2979261   0.0185005  -0.1548885
   0.3778883   1.1963387  -0.3904764   1.7555863   0.6523664   0.5168993
   0.1131236  -0.1905927   0.1643012  -0.3491416   1.0739068  -0.2058519
  -0.3822666   1.5432677  -0.6573059  -0.0350805  -0.0757658  -0.1227032
   0.0693911   0.1400087  -0.1066312  -1.3045005  -1.6527473  -0.9495579
   0.0715726   0.2529246  -0.1744498   0.1232724   0.3007754  -1.0032438
   1.2060267   0.8891146  -0.5204259  -0.0296428   0.2495707   0.0565335
  -1.0174147   0.1002912   0.5618325   0.6122112  -0.4404524   0.7682129
   0.1335678  -0.2408672  -0.1225203  -1.2859662  -2.3550217  -0.7352707
  -0.0401946   0.6421116   1.0924930  -0.1694478  -0.1965407   0.1216537
  -0.1290117  -0.7896942   2.0060374   1.7303700   0.0578083   0.3140404
   0.0750241   0.1155348  -0.0929868  -0.4940665   0.2716872  -0.1073234
  -0.4844725  -1.4436209  -0.2697989  -0.1588993   0.0419879   0.2267278
   0.7084827  -0.0880185   0.1245721  -0.6993451  -1.3723504  -0.9779228
  -0.0655871  -0.2718622   0.0900024   0.8767565   1.1024837   0.8488708
  -0.1619141   2.0490682  -0.4095441  -0.0981691   0.2262819  -0.2308172
   0.0837545   0.1942854  -0.1220977  -1.5265065  -1.2017745   0.1319538
  -0.0043658   0.1798778  -0.1407755  -0.4297660  -0.6145183  -0.0028249
   0.0785982  -0.2460345   1.0097077   0.1201424   0.1774457  -0.0056173
   1.0338659  -0.7277662  -0.4789833  -0.1267987  -0.8780259  -0.5322845
  -0.0478180   0.0634643  -0.2287831   0.5825024  -0.2447474  -2.1078692
   0.2876601   0.1776669  -0.2108740  -0.1009256  -0.0581884   0.0422937
   1.0738247   0.1175446   0.5490737  -0.0796411   0.1957157   0.1457223
   0.0364766  -0.1018761  -0.0377389  -0.1802615   0.0628219  -0.6183163
  -0.0481299   0.0634146  -0.3395595  -0.2966218  -0.0862277   0.2470753
  -0.6135560   1.3837657   1.4411741  -0.2144914   1.2764068   0.1340508
  -0.0978296   0.2178188   0.3290721  -0.0495368  -0.5940329   0.5507326
  -0.0867435  -0.2047187   1.2922298  -0.2549265  -0.0509562  -0.1385739
   0.0233397   0.4201843   1.0966504  -0.3300518  -0.9466189  -0.0029104
  -0.2264349   0.0597462  -0.0570517   0.2816309   0.5996628   0.7954072
  -1.1183665  -0.3340702   0.2512388   0.3012835  -0.3111745   0.0822580
  -0.5256300  -0.2983206  -1.2620689   0.5065368   0.7481945   0.6266734
   0.2136967   0.3350551  -0.1127391   0.8487224  -0.7182755  -0.1904169
   0.3161937   0.3166556   0.5167683   0.0683332  -0.1528956   0.2420224
  -0.2302154  -0.5941378  -1.6659678   1.5742833  -0.4754269   0.4657457
   0.0052584  -0.1343210  -0.3277854   0.4912791  -0.0987903   1.0060826
   1.6664410  -0.8892410  -0.1470348  -0.1783899   0.0933981  -0.2257719
  -0.2938479   0.2750598   0.0328295   0.2847068   0.1093143  -1.3041964
  -0.1917618   0.3168797   0.3180115   0.3952595  -0.4610905  -0.7244571
  -0.8756032   0.7079426   1.1479904   0.2603764   0.1581505   0.1954449
   0.1522263  -0.7130425  -1.0357239  -0.6466705  -0.1460528   0.0886125
  -0.2422323  -0.0431284   0.0939732  -0.5933191   0.1276701   0.2866371
  -0.2593123   0.3330999   0.1192386   0.2736544  -0.0432408   0.0663020
  -0.3560635   0.4133311  -0.5132533   0.4092420   0.4428644  -0.2916000
   0.2019155  -0.0044618   0.3112950   0.1557984  -0.2412482  -1.2198150
  -0.3856195  -0.8826086  -1.3347115  -0.0207491   0.2213885  -0.0489936
  -0.5108025  -0.1158594  -0.2603675  -0.1618715  -0.5976819  -0.5011011
  -0.0905972  -0.0301721  -0.2580884   0.6774209  -0.2200549  -0.1814964
  -0.9908705   0.1052820  -0.2006962  -0.0058498  -0.0541800  -0.3127167
  -0.1125927  -0.4399368  -0.4319308  -0.9658905  -0.3264663   0.8467914
   0.0295352  -0.0873929  -0.0233060   0.1817676   1.1059686   0.8331088
  -0.7300424   0.2430409   0.3133931   0.2073515  -0.2107038   0.1635274
   0.4015430  -0.9184563   0.6105323   0.9229808  -0.0831854   1.1905151
   0.1036505  -0.4358380   0.1581833   0.3662624   0.2178960   0.5916412
  -0.5640650  -0.3487852   0.5528526   0.3892966   0.0594984  -0.2065275
  -0.1677834  -0.5853558   0.3267491   0.3982720   0.5114851   0.2099191
   0.3648170   0.3347241   0.1125354  -1.0852693  -0.7865863   1.4208019
   1.3994390   0.5584046   0.6530488   0.0300055   0.0693778   0.0119164
   0.1706636   0.8678353  -1.2311272  -1.2361511   0.0797666   0.0367595
   0.0167806   0.1388262  -0.0200956   0.6835150   0.6076103   0.8350527
  -0.3431291   0.1268751  -0.5099153   0.0822214  -0.0440769   0.0337013
  -1.3848475  -0.6771113   0.6809933   1.1186222   1.0283137   0.3070719
   0.2397504   0.0574509  -0.0477849   0.4310962   0.1129286  -0.4175070
   0.3474421   1.7503518  -0.6555513  -0.2434957   0.0032448  -0.0330939
   1.2167436  -0.4757734   0.0316388   1.8002663   1.0002063  -0.8412523
   0.2294097   0.0852859   0.0811991  -0.9276343   0.2575875   1.0630199
   0.2781379  -1.5718675  -0.2635465  -0.0844095   0.0435226   0.2753648
   0.8492443   0.9580031  -0.5458481  -1.7534321   0.5059256   0.5383204
   0.0706303   0.1029629  -0.5091231  -1.2927090  -0.8618515   1.7700156
  -0.7196784  -0.6994980   0.0716111  -0.0947984  -0.0489648   0.1847843
   0.4825170  -0.0939061  -0.4172844  -0.8980371   1.2254387   0.3670421
  -0.4254397  -0.0204912   0.1009850   0.6745671  -1.0738502   0.7802727
   0.1608702  -0.2370793   0.2600560   0.0455137  -0.0625450  -0.4121334
   0.0838721   0.6568073   0.0171268   0.4366365   0.3641171  -0.6395708
   0.0213117  -0.2717602   0.1105799   0.6382908  -0.2169850  -0.6428830
   0.2847747   1.1433881   0.7407748  -0.1633794   0.4520524   0.0226481
   0.6071272   0.1250305   0.9556860   0.2390289  -0.8381126  -0.6645116
   0.1229850  -0.0151795  -0.2960534  -0.3605079  -0.1323370   0.1516384
   0.2599842  -0.4713365   1.1054136  -0.2130289   0.2662313   0.1645221
  -0.5431970   0.0551832  -0.2792027   0.5470341   1.0137378  -0.1551301
  -0.2563829  -0.3952776  -0.2515197   0.6229951  -1.1101891   0.0487035
  -1.6157771   1.1450110   1.5688233   0.0437651  -0.1075149   0.2766365
   1.0504537   2.3791231  -1.0209928  -0.8260192  -0.8708217   0.3098803
   0.1034484  -0.0494340   0.2103760   0.7437617  -0.6407109  -0.7915996
  -0.6720037  -0.4669466   1.0894352   0.2203532  -0.1645553   0.1110624
   0.8663051  -0.6691194  -0.1402121  -0.5067331  -0.7687473   0.0133528
  -0.1752286  -0.0304297  -0.2689634   0.6431926   0.2280022   0.2281307
  -1.3478772   1.5402447   0.4000916   0.1312384   0.2244218   0.0618124
  -0.0054758   1.2100293  -0.3518053   0.5606844   0.4083961   0.0196611
  -0.0996657   0.1333335  -0.2842860   0.4662942  -0.0403654  -0.4896502
   0.7489220   0.9781009  -0.2763020   0.0968980   0.0821640   0.1976706
  -0.7888499   0.0185283   0.5130139   0.7578265  -0.6939101   0.6496423
  -0.2151439  -0.1349343   0.0995645   0.1425930   0.2282590   0.6145945
   0.4133111  -0.7708483   0.7696655  -0.1806676  -0.2010375  -0.1044569
  -0.2379368  -0.0613184  -0.4137870   1.1175920   0.3552609   0.5241586
  -0.1582737   0.5662308  -0.1537687   0.7168575   0.8645309  -0.3813448
   0.5140198  -0.3937116  -0.3784433   0.5020783  -0.2507061  -0.0385161
   0.7573274  -0.4757052   1.1923094   1.0111725   0.0268426   1.2141140
  -0.3159233   0.1362133  -0.0862859   0.3259589   0.5967938   0.1831279
  -1.7121653  -0.8943635  -0.6031436   0.3569361   0.1028728   0.1342368
  -0.2074608  -1.1159587   0.2269973   0.3565874  -1.0285804  -0.2666459
   0.2281991   0.0214297  -0.3962190   0.8779061  -0.0769880   0.3077265
  -0.2210350  -1.1294132   0.5745427   0.2077497   0.3344318   0.1345749
   0.3407216  -0.0585496  -1.0990450  -2.1778995  -0.0142457  -0.3914679
  -0.2723357   0.0977574   0.2336916  -0.6464715  -0.0964655  -0.6007106
   0.9155415   0.6233475  -0.2730963  -0.1446038   0.0871188  -0.0667533
   1.4227710  -0.3593340  -0.3729946   0.0256573   1.2845466  -0.6961433
  -0.0059862   0.3797147  -0.2022909   1.0459713  -1.3204158  -0.2661023
   1.6482727   0.5701013   0.1817204   0.0019713  -0.0362279   0.0823578
  -0.5599374  -0.8666483  -0.0762963   0.5742194   0.2371623  -0.8370999
   0.0501188  -0.0351728  -0.2368807  -0.7610060   0.7091446   0.2501169
  -0.1854549  -0.8898384  -1.0465077   0.0592128   0.1895266  -0.1096111
  -0.0841078   0.5963763  -0.4287404  -0.1539712  -0.4695491   0.7852425
  -0.0370501  -0.0927778  -0.3437186   0.0504184   0.1986584   0.2549773
   1.4835820   0.8265063   0.0011551  -0.2334128  -0.0344017  -0.0340344
   0.9101359   0.4928905   1.2671828  -0.8852377   0.7778849  -0.8325001
   0.1089754  -0.0818269   0.2566194  -0.5717893  -0.1147034  -0.3970290
  -0.2669193   0.6341793   0.6539154  -0.3224618  -0.1398225   0.2787199
  -0.4298554   0.5253607   0.2327194   0.9513909   0.1240976  -0.8651863
  -0.2221729   0.0247769  -0.2341453   0.4866609   1.4514907   0.0131906
   0.3687306   0.3199232  -0.4714810  -0.2557369   0.2138196   0.3865429
   1.0900942   1.2202806   2.5411205  -0.4221121   0.4597613   0.8781254
   0.0911302   0.1652555  -0.2436932  -0.2447977  -0.7491621  -0.3599666
   0.6499105   0.0625354  -0.5608549   0.4299835  -0.3112022  -0.0655590
   1.5073281   1.2093793  -0.2374944   0.0128874   2.5141197  -0.3347634
   0.0331798  -0.1335874  -0.2311574   0.4080844   1.3313841  -0.0779236
  -1.6914627  -0.0695643  -0.5638933   0.0344782   0.0696700  -0.0985322
  -0.9940296   0.4043088   0.3287997   0.3019898  -0.6048741   0.0663454
  -0.0181934  -0.2379480   0.2029236  -0.0149133   0.2223247   0.1725905
  -1.1244190   1.1451807  -0.7629985  -0.0586069   0.3390082  -0.1653609
   1.5883692   0.7383507   1.2421020   0.4858454  -0.0579255  -0.4575219
  -0.3610696  -0.1277923  -0.2783221  -0.2131598  -2.1592919  -0.7871418
  -0.4278378   0.6099234   0.2876833   0.4609938   0.3185343  -0.0165156
   0.7776462  -0.8371704  -1.0158426   0.7537813  -0.5047894   0.2869574
  -0.1861611   0.1723756  -0.0372507   0.4332666   0.0884438   0.2641338
  -0.6971968   0.6746077   0.0322664   0.2849054   0.2611408  -0.2035229
   0.3476842  -0.9707653  -0.8952117  -0.6968630   0.5708917   1.8718789
   0.0166308   0.2196254  -0.1157836  -0.8957037  -0.5658955   1.5999798
  -0.0198315   0.6492361   0.2054201   0.0418965   0.0120772  -0.0129019
   0.1095292  -0.3259753   0.1385861   0.5386062   2.1298446  -0.2699006
  -0.3371648   0.3576709   0.1444837  -0.7813651  -0.6101698  -0.7908013
   0.5198112  -0.3123512  -0.3688482  -0.0082680   0.0700400  -0.2279635
   0.3125909   0.3132507  -0.1059645  -0.3211459  -0.9058756   0.3932592
  -0.0630502  -0.0421758  -0.2961744   0.3287780  -0.3514544   1.3078417
  -1.8737958  -0.1818466  -0.0053643  -0.0956329   0.1158649   0.0212454
  -0.0072321  -0.8302734   0.2120837  -0.2120248   0.0464264  -0.0338545
   0.1720243  -0.1053987  -0.1809204   0.6430920   0.6830070   0.5147311
   0.9466899   1.0836320  -1.1850326  -0.0379670  -0.0728081  -0.0701310
   0.2513429   1.3837188  -1.5105384  -0.5145650  -0.4840946  -0.2532325
  -0.1894624   0.2141073   0.4448512  -1.0369120   1.1160456   0.5522633
  -0.5533636   0.5890651  -0.6850454   0.2376307   0.3103673   0.1100502
  -0.5515038   0.8887862   1.5941939   0.5768533  -0.9594026  -0.2388413
   0.1449301  -0.2204403   0.1099862  -0.0113980   1.6380703   0.0966933
   0.4766067   0.8530484  -0.5917700   0.1194223  -0.0027697  -0.1359199
   0.8447869   1.2414250   0.1841607   0.6653387   0.8123382   0.4590000
   0.0941852   0.1261794   0.1254425  -0.5731754   1.5011315  -0.2544594
  -0.6682376  -1.3629367  -0.2184233  -0.1942192   0.1662609  -0.0392494
   0.7299650  -0.1150308  -1.4580305   0.2616802   1.9162026   0.6414892
  -0.0001161   0.1961918  -0.1149176   0.2701315   0.4074739  -0.4816568
  -0.7932017  -1.6229367   0.0944219  -0.0414155   0.2340469  -0.2199081
   0.9794228   0.2388792  -0.4108348   1.0668835  -0.0024109   0.1008239
  -0.0522854   0.0547974  -0.0074803   0.7248205   0.2899466  -0.2772839
  -2.0305717   0.0537901   0.4664816  -0.4070638  -0.2707400  -0.1340198
   0.8715898   0.0603495   0.0291813  -1.6776026   1.0590542   0.3619558
   0.0142604  -0.1664031   0.0783139  -0.7347319  -0.5364921  -0.3365837
  -0.1395042   0.8066304   0.6227643  -0.0253126  -0.1836942  -0.1519764
  -0.2113992   0.0577083  -0.0869078   0.9327994   0.0305764  -0.0043894
   0.0836392  -0.1671612  -0.0044576   1.5806351  -1.1517117   0.7585220
  -0.9655166  -0.2537184  -0.2251264   0.1040606   0.1924601  -0.0112160
  -0.0013507  -0.4784076   0.6553978  -0.5179140  -0.4478903  -0.3707266
   0.0467241   0.1090842   0.0082953   0.3781058   0.4871161  -1.1259463
  -0.2650677   0.5245285  -0.2448480   0.2594680  -0.0571589   0.0616314
   1.3540848   0.8368267  -0.9777848   0.3076091   0.8057852  -0.1332728
  -0.1004432   0.2109898   0.1219128  -0.5424929  -0.0775389  -0.1729695
   1.9712100  -0.4807864   1.6344344   0.0018451  -0.0332315  -0.0228559
  -0.6178618  -1.0742721  -0.5362470   1.6561120   0.0860823   0.6728643
   0.0795533   0.4034658  -0.1022524  -1.1840336   1.9991700   0.8431112
  -0.9519761   0.9305572   0.5094433  -0.1266186  -0.0486156   0.3055472
  -0.4347819  -1.4620949   1.0896719   0.3692600   1.4175956  -1.4175927
   0.0112740   0.1877655   0.2104285  -0.8350504   0.1687622   0.7956974
   0.3572866  -0.1036189  -0.4858218   0.1961272   0.1312414  -0.1719935
  -0.6944247  -1.0816311   0.6063237   0.1685729  -1.4074327  -0.2413533
  -0.0025186  -0.2736054   0.1355765   0.9721171   1.4687711  -0.9676529
   0.5561215  -0.6332557  -0.5832045  -0.0215316  -0.0701616   0.2665513
   1.5078557  -0.3176408  -1.5838659   0.3187582   0.5203364  -0.2767782
   0.2295087   0.2631025  -0.1726312   0.0398525   0.6016832  -0.0478770
  -0.1300039   0.0493086   1.2060403  -0.0816671  -0.2290721  -0.1223096
   0.0060661   0.7434904  -0.2001986  -0.6541608  -0.1781983   0.0722547
  -0.1944493   0.0301013  -0.0543944  -0.0264219  -1.2429290   0.8280219
  -0.1052762  -0.2396498   0.8493850   0.1299276  -0.0830214   0.0637502
  -2.0616371  -1.6697652  -1.0127704  -0.1060896   0.2464237   0.3884334
  -0.0429798   0.1246261  -0.5222015   1.6645587  -0.1650382   1.2103829
   0.1303962   0.7446090  -0.2060522   0.2846295   0.4150352   0.3129790
   2.2313644  -0.5093174  -0.1818834   0.6223443  -0.1420315  -0.2399848
  -0.1707424   0.2397355  -0.1642037  -0.0123692  -0.3139790   1.3841855
   0.1338848   0.2350864   0.4841555   0.0763859   0.0725011  -0.0725658
   0.0410605   0.4889505   2.4743803   0.4151443  -0.2244147   0.3174338
   0.3108505  -0.1889888  -0.1925474  -0.1574263  -0.8396626  -0.0390203
   0.1025305  -0.5042740   0.1005665  -0.3291745  -0.0722603   0.1615024
   0.6221211   0.9479009  -0.6222247   0.7081305   0.0621413   0.1518929
  -0.0496480  -0.1725629  -0.2375916   1.3945262   0.5710981  -0.6753734
  -0.4710232   0.1619997  -0.2154638   0.1450023  -0.0530668   0.2243950
  -0.1197871   0.2005630  -0.6078896   0.1551898  -0.7526930  -0.0419660
  -0.0067118   0.0104195   0.0079859  -0.4351082   0.0945721   0.8413954
   0.8001583  -0.0445963  -0.6499045  -0.2306638  -0.0120508  -0.1598727
   0.5947354  -0.7501067   0.3859378  -0.2377841   0.5669902  -0.4051323
   0.2302197   0.0140916  -0.2693597  -1.9341363  -1.3087746   0.4689738
  -0.4601383  -0.5569379   0.0688741  -0.1691287   0.1275357  -0.0997827
   0.3977788  -0.6938732   0.5893289   1.6326782  -1.2183817  -0.6698559
  -0.0481058  -0.4507389  -0.0016668  -1.0527729  -0.4455403   0.8985107
  -0.2677776   0.8790233  -0.3201119   0.1806513  -0.2100739   0.2278520
  -1.1302106   0.2756234   0.5168593   0.7384797  -0.7715360  -0.1544337
  -0.5276566   0.2210716   0.1819990  -0.7431615  -0.3455751   0.1695564
   0.3361978  -0.5344110   0.0125414   0.2509851   0.0528422   0.3356890
  -0.2850542  -0.4970888  -0.5669568  -0.2220944  -1.6171015  -0.1899295
  -0.0306114  -0.1185280  -0.0708011   0.3679200  -1.3545346  -0.9939153
   0.5448937   0.5255563   0.3181242   0.2251536   0.1938735  -0.3021782
   0.7545402  -0.7149829   0.7145621   1.3088695  -0.9392914   1.3034907
  -0.1485782  -0.0544696   0.1249387  -0.5089944   0.1590062  -0.7889762
   0.2313283   0.4258526  -1.6462798  -0.1009711   0.0349779  -0.0064368
   0.7226429  -0.2107816   0.4715257  -0.7578490   1.2019966  -0.2253081
  -0.0532913   0.2703456  -0.2480927  -0.2383859  -0.9498421   0.1088435
   0.3117255  -1.2345970   0.1521526  -0.1027732   0.1665478  -0.1282869
  -0.6459271   1.3397790   0.5063472   0.0342167   0.2297237   1.2643614
  -0.0916430   0.1082517  -0.3751971   1.1083632   1.2617900   0.9779198
   0.0553139  -0.4110721  -1.6447981   0.0221983   0.0372489   0.1236236
  -0.4994333   0.2554938  -0.3550045   0.5093815   0.0017021   0.5809197
   0.3817971   0.0775852  -0.2020595  -0.8443738   0.4939996  -0.6213702
   1.0251344  -0.1349274   0.6020337   0.1789710  -0.2010547  -0.4008665
  -0.4077506  -0.4120496  -1.1246861  -0.0312760   0.0396053  -0.5616978
  -0.0322921  -0.2453035  -0.3750136  -0.9011887  -0.0010945  -0.9894585
  -0.1428864  -0.4613863   0.1327067  -0.3668364   0.4487945   0.2045175
  -0.4185256  -0.7369058   0.8316184  -0.8291435  -0.1369984  -0.7609257
   0.2848472   0.0127180  -0.2393684  -0.5394128   0.8502630   0.2323115
   0.3162303   0.0225824  -0.5811345  -0.0693460   0.0496856  -0.1492961
   1.8471546   0.5268968   0.7894016  -1.7455811   0.4876651   1.2057742
  -0.0917182   0.0621134  -0.1288662  -0.6736020  -0.9838521   0.1986609
   0.4569018   0.4346742   0.7743288  -0.2961582   0.1704663  -0.0248226
   1.0168797  -0.4141425  -0.1788992  -0.4695433  -0.3511245  -0.2851147
  -0.1794578  -0.1818315  -0.3378086  -0.8287696   0.3879179   0.2767814
  -1.8440483  -0.1480451  -1.1344758  -0.4391578  -0.0731111   0.1870474
   0.1238577   0.2167149  -0.3549924  -1.7335754   0.2951633   0.3553230
   0.3632429   0.0206270   0.1428120  -1.9687131  -0.2678303   0.3360975
   1.1237874  -0.3522367  -0.7768014   0.3082712   0.1293908  -0.0533102
  -0.7339511  -1.0282222  -0.4661706  -0.0330619   0.1060204   0.1701712
  -0.2725387  -0.2468661  -0.0918029  -0.1147707  -0.8784956   0.4348988
   0.2525947  -1.0749268  -0.6645484   0.1585265  -0.0982785  -0.1064440
   0.1438707   0.4001171   0.3468032   0.6483581  -0.7515913   1.4293087
   0.1586413   0.0938828  -0.0784074  -0.5328786  -0.1830953  -0.0503086
  -0.4966611  -1.1564331   0.2833729   0.0762699   0.2112677  -0.4348610
  -0.2438702   0.4227221   0.4053710  -0.0495976  -0.6645207  -0.2203536
  -0.1846178  -0.1853296   0.0628090  -0.5260071   0.2990174   0.1740969
   0.8135108   0.4474113   1.3789861  -0.3572497   0.3315492   0.1033912
  -2.2104383  -0.4480826  -1.0812998  -1.5925595   0.3220231  -0.3258035
   0.0128671  -0.1159630  -0.1540423  -0.2240713  -1.1808265  -0.7901293
  -0.0133619   0.0136809   0.4303108   0.5347473   0.4206603  -0.1432639
   1.1881192   0.4321859  -0.7153479  -2.1659729  -0.2870232  -0.2043532
   0.1557691   0.4131590   0.1005731   0.5071943   0.3939598   0.8206298
   0.5078006   0.2344667   0.0112073  -0.0256784   0.1447269   0.2950442
   0.3243864   0.6994181   1.8433030   0.1019121  -0.0930623  -0.0687131
   0.0423602  -0.3820898   0.0835088  -0.3530183   0.5690570  -0.0310547
   0.2681800  -0.3200346   1.7972498   0.1048687   0.0652290  -0.2069445
   0.2860788  -0.1950724   0.8261715   0.8947547   0.6572236   1.1926066
  -0.1228772  -0.0100817  -0.1960032  -0.2736073  -0.5600771  -1.1096703
  -0.6744181   0.2383284  -1.2815482   0.1526554  -0.0020502   0.3652593
  -0.2384241  -1.3820165  -0.2817719   0.3365358  -0.2851174   2.0996370
  -0.2855831   0.0616132   0.1445721  -0.2017736   0.1466310  -0.9110875
  -0.7832323  -0.4441275  -0.6101600   0.0735579   0.3291192  -0.2792419
   0.4181849  -0.7316347   0.2825587  -0.3722442  -1.3195936  -0.7388791
  -0.0066696  -0.0576431   0.2303655   0.5048178   0.6623875   0.7914969
  -0.8863427  -0.1234990  -1.1194309   0.0095096   0.0173354  -0.2950260
  -0.3578520   0.0872948   0.6288244   1.1760740  -0.5333917  -1.1968775
   0.2273978  -0.0470732   0.1402423  -0.7548885   0.8907342   0.8182717
   0.5750077  -0.3247119   0.9350196   0.4276542   0.5062739   0.3008123
  -0.1125128   0.2475287   0.9559053   0.1713240   1.5402922   1.2924537
  -0.0731538  -0.0022304   0.1174585   0.5096921   0.4027242  -0.9124955
  -0.1927269  -0.5888094  -1.5028113  -0.3682457  -0.0684759  -0.0259572
  -1.0195464   0.4851109   0.6164212  -1.2737370   2.2388599   0.2598175
  -0.0148624  -0.2356778   0.2169774   0.5740680  -0.5293469   0.4458641
  -0.1424338  -0.2291063   1.1743222  -0.3674968  -0.3259915  -0.0861838
  -0.9579813   0.2579794   1.2698486  -1.7437672  -1.2779020   0.0030549
  -0.3883369   0.0649145  -0.3640219  -0.1922448  -0.9965376   0.5468180
  -0.3581522  -1.0393122  -0.3448908   0.0999805   0.0675786  -0.1313778
  -0.2741285  -0.4696209  -0.2584576  -0.7648715  -0.4100018   0.1367194
  -0.1291054  -0.2986753   0.1540964   0.5425756   0.5145032   0.7547899
  -0.8062613  -0.2318921   0.0929921   0.1393270  -0.1611385  -0.1624692
   0.8895827  -0.5456308   0.3638504   0.8048409  -1.1623944  -1.6646329
   0.0688484  -0.0929289  -0.0854580   0.1619113  -0.0827079  -0.7952027
   0.7730927   1.4402589   0.2804988  -0.1203911   0.5250877   0.1196545
  -1.3599432   0.3212278   1.1842803  -0.1773565  -0.0917786   0.3362976
   0.0829079  -0.2560031   0.0424671  -0.4969911   0.1078593   0.2148083
  -1.3254119   0.6332216  -0.9182806   0.0784339  -0.0485705   0.0261011
  -0.2217393   0.1277820   0.6646720   1.5837211  -0.1477427   0.1764677
   0.0538882  -0.0215542  -0.0244434  -0.5051454  -0.3589242  -0.4654007
  -0.1002674   0.7011910  -0.3704634   0.0263221   0.0402252  -0.0290383
   0.8514706  -1.0779517  -0.7932340  -0.4848608   0.6663887  -1.2315445
  -0.0197937   0.1808069   0.3643514  -1.0768193  -0.1045685   0.6980688
   0.1162348  -0.0684240  -0.3325322  -0.1834711  -0.1329493  -0.0607356
   0.1562222  -0.4543387  -0.2746920   0.8589190   0.5515489   0.0369187
  -0.2555487  -0.3642391   0.0236458   0.6350766  -0.0127619  -1.5664038
   0.0528959  -1.2144297   0.6055227   0.0205535  -0.0155845  -0.0933066
  -0.5572214   0.7172760   0.8440904   0.5190077  -0.0786723   0.5825853
   0.1509666  -0.1110814   0.1591839  -0.7282364  -0.8619793  -0.2705380
   0.4802630   0.2190514   0.0881104  -0.2155064  -0.0079274   0.1202763
   0.5882056  -0.0227953  -0.2074296  -0.3457672   2.4392775  -1.2916856
  -0.2720151  -0.0754022  -0.1899262  -0.2869030  -0.6421512  -0.3359934
   0.1727136   0.2731027   0.9723165   0.3160328   0.1804792  -0.0737524
  -0.7139535   0.5985594   0.1620718  -0.5858156  -0.8808645   0.5572558
   0.1466350  -0.0900749   0.0315636  -0.2056430  -1.3154233   0.3271952
   0.3246572  -0.5040679  -0.9541613  -0.0359988   0.2233891   0.2793074
   0.7687513  -0.1895515  -0.1488397  -0.7693496  -0.0694324   0.5783693
   0.0686568  -0.1464296  -0.1274735  -0.0918967  -0.8169871   0.3151209
  -0.9451344  -0.9762522   0.1450896   0.1333500  -0.2665527  -0.3185327
   0.6463150   0.4257486   0.4740925  -1.2605901  -0.4812404   0.1458643
  -0.0044897  -0.1180943   0.0848907  -0.1984265  -0.6405574   0.2341455
  -0.1622314  -0.0135151  -0.1912173  -0.1156909   0.2748463   0.1605352
  -0.9589714   0.6043019  -0.8886960  -1.4974256  -0.1625062   1.5453679
  -0.2125483   0.0541616   0.0654132  -0.1589113   1.2066911  -0.1127821
  -0.9605120   2.0787435  -0.2093543  -0.0049087   0.2599467  -0.0171282
  -0.7790564   1.0131489   0.1424476  -0.8602551  -0.2514697   0.8466913
   0.0573286  -0.1166855   0.0735197  -0.8742786  -0.6418390  -0.8599075
  -0.0766489   0.3511510  -0.7246222   0.0858356  -0.1180411   0.2234072
   0.4037443   0.6286683   0.7675108   0.8204358  -0.1028032   1.1239739
   0.1097517  -0.2072212  -0.1546863  -0.0246385   0.6385531  -0.0519818
  -0.4482516  -1.1931086   0.0766668  -0.0249120  -0.3013688   0.2940484
   0.1240369   0.3849507  -0.5843318   0.6428842   1.4630258   1.5838676
  -0.0602760  -0.1815567   0.2580079   0.9669554  -0.2161512  -0.0002267
   1.0927804  -0.4857431  -0.5320902   0.0927499   0.1578632   0.2393249
  -0.9573915   0.6433033   1.4294359   1.5360420  -0.1329645   0.2967028
  -0.0167553  -0.1771855  -0.3261052  -0.0155230  -0.5036491  -0.8476335
  -0.9010574  -0.6451432   0.3034721   0.2392763  -0.1234496   0.0899096
   1.5049026  -0.1489314  -0.6419410   0.2157522   0.6227816   2.4827833
  -0.2433070   0.0201175   0.0424509   0.1550982  -0.6693443  -1.3629059
   1.3283350   0.0474744   0.4991856  -0.3828850   0.0893703  -0.2465473
   0.7644540  -0.8382210  -0.6747529  -0.3877983  -0.1692326   0.1406300
  -0.1259054   0.2474623  -0.2228989   0.1289751   0.1008273   0.4935720
   0.6458485   0.5656946   0.1370960  -0.1355121  -0.0079099  -0.0149102
  -1.0243630  -0.1025245  -0.2968329  -0.9507084   1.2159201   0.1229769
   0.2653800   0.1103601   0.2346333  -0.4475976   1.0872779   1.0958355
  -0.1180111   0.0291196   1.5102265   0.0516991  -0.0495998  -0.1617868
  -0.3222704  -1.0640167  -0.1248045  -0.3413146   0.7158735  -0.2995291
   0.1591975  -0.2225795  -0.3623332  -0.4731393  -0.9761049   0.1311839
   0.8151324  -0.3579237   0.7450286  -0.0272574  -0.1591766   0.3796551
  -1.3827771   0.0594782   0.4535385   0.6189269   0.2691569   0.4165565
  -0.1206184  -0.1554272  -0.0092716   1.0298828  -0.2344546   0.3394224
   1.7536710   0.5531626  -1.9813721   0.0010138  -0.0242378  -0.4667296
  -0.1601619   0.4675921   0.0159735   0.7970895  -0.4215119   0.3800169
  -0.0246252  -0.0729889  -0.3561064   0.8234967  -0.5697180   0.5822550
   0.5111924   0.9873589   0.3180772  -0.1762040   0.1527817   0.2549347
  -0.8420527  -1.1775881   0.9044070  -1.0763343  -0.6727632  -0.2293141
   0.2629344   0.2083990  -0.0544436   0.8043160  -0.3152581  -0.3460671
   0.2163474   0.1891789   0.1305990  -0.0707418   0.1231484  -0.0407417
  -1.1264783   0.7559758  -0.2132795   0.3101978   1.1543877   0.4162644
   0.0161190  -0.0046508  -0.1945892   0.2620703   0.4456636  -0.7869399
  -0.0286964   0.3944211   0.0250932   0.0563602  -0.0623838  -0.0602107
   1.0637047   1.2615986  -0.4937719   0.3377670   0.6260237  -0.5786143
   0.0401828   0.0045715   0.1326533   1.3613633   0.3200037  -0.5115928
  -0.6352465  -0.8242316   0.5154529  -0.1500047   0.2809417  -0.0094563
  -0.6520781  -0.0421552  -0.5642210  -0.7591535  -0.2252630   0.7594052
   0.1391803  -0.1425778  -0.3728545  -1.7310801   0.5621654   0.0269396
   0.5407772  -0.3531899  -0.1714665   0.3303513  -0.0738534   0.0112172
  -0.6222843  -1.6457973  -0.2568336   0.7275615  -0.0788749   0.5016277
   0.2652839   0.1041167  -0.0245092  -0.1527122  -0.2249696  -1.4264338
  -0.9336293   1.2108086  -0.9913632  -0.0915982  -0.0613565  -0.1594454
   0.2078420   0.0391894  -0.3923103   0.6453554  -0.2678529  -0.8399374
   0.1693219  -0.1472253  -0.0765749  -0.7414512   0.3470710  -0.7224252
   0.5046641   0.3749823   2.8034744  -0.2918720   0.1411188  -0.0784552
   1.0651927   0.4845350  -0.1383298   0.1270041   0.8171990   0.9036352
  -0.0555247   0.1956946   0.0144446   0.0959026   0.0275137   0.9058096
   0.4701229   0.3430585   0.7430704   0.1365611   0.3836726   0.2122096
   0.0495925   0.6888997  -0.2521384   1.0250255  -0.7446284  -0.9111874
   0.1980936   0.0426701  -0.2598905   1.6179858  -0.0013017  -0.6224981
  -0.1973478  -0.3150177   0.3296772  -0.1153353  -0.1740308  -0.1437490
   0.2175973  -0.9381155   0.4482628  -1.0582252  -0.5258649  -0.1878941
  -0.1246017   0.2014683   0.0793107   0.9520267  -0.7939197   0.5439915
  -0.7096962  -0.5761235   0.5905685   0.1639917   0.0355111  -0.1232056
  -1.0546295   1.8188434  -1.2063556   1.3261721  -0.3325893  -0.0149275
   0.0464739   0.0315763   0.0575510  -0.2270135   1.2360506   0.9509746
   0.6726297  -0.3010052  -0.2312305  -0.0632849   0.2862768   0.0177864
   0.4551636   0.6031846  -0.4703479  -0.2550195   0.7259055  -0.6784301
   0.0220472   0.0998586   0.2181096  -0.8701025  -0.4208586  -0.5429787
   0.7191478  -0.7787806  -0.5769918   0.1887934  -0.0221269  -0.1727082
  -0.2223222  -0.2645507   1.4522975   0.3002976  -0.4569679   0.4663618
   0.1968075   0.1413011  -0.1424310   0.0813363  -0.1802543  -0.3386173
   0.8522492  -0.3280759   0.0492211  -0.3028229   0.1219974   0.3582326
   1.3938542   1.0159936  -0.0384568  -0.8868775   0.5463566   0.2930546
  -0.1376163  -0.0037931   0.1737185   1.1168663   1.2263207   0.7472801
   0.5876313   0.7155853  -0.6322256  -0.1097396  -0.0953629  -0.3545770
  -0.5540980   0.2553024   0.8599896   0.6495525   0.2706762  -1.0145174
   0.1996293   0.3384340   0.1459945   0.0850561   0.0930435   0.8973287
   1.2050641   0.7930375  -0.4315900   0.2031177  -0.1852904   0.0881176
   0.5498829  -0.4079092   0.1635096   0.4097689  -0.1963952  -0.2787303
  -0.0569729   0.2471825   0.1479163  -0.2162814   0.4878433  -0.6883835
   0.9499145   0.1067031   0.8548459   0.0626287  -0.0867029  -0.3620899
  -0.5295447   1.1816137   0.0385751  -0.3753299   1.8271879   0.0452928
   0.1154679   0.3021729   0.1000006  -0.0325610   0.2885136  -0.4421665
   1.1442223   1.1575222   1.4471490  -0.1749732   0.2307735   0.1343333
   0.3048167   0.1259695   0.1252673  -0.3276074   0.0713906   0.2206938
   0.2620379   0.0701763   0.1411016  -0.7622566  -0.1082837  -0.0776912
  -0.0871125  -0.5032169  -0.8430046   0.0569482  -0.5630926  -0.0855933
   0.0508698   0.5187830   0.0790294  -0.1925601   1.2725094   0.3428920
  -0.0938193  -0.1107405   0.2309308   1.5163374  -0.6858952  -1.4186650
   1.1733788   0.3232466  -0.3595212  -0.1386620   0.1918024   0.2070648
   0.8563286   0.8042326   0.1180819   0.4305515  -0.2062381  -0.2750584
   0.2860448   0.1063401   0.0239535  -0.6416211  -0.4840326   1.0117094
  -0.3074093   0.6206277  -0.4243379   0.3268370   0.1089453   0.3072003
   0.3498229  -0.2524143   1.2375387  -0.4492179  -0.1702104  -1.3820507
   0.0373075   0.1695786  -0.2191298   0.2812220   0.9175600   0.3198618
   0.5272123   0.7393092   0.5470688  -0.2516369   0.1453590   0.0711781
   0.7910241  -0.0308644  -0.0963823   0.6987042   0.1847977   0.3712167
  -0.0292719   0.1043499   0.1245859   0.8908760  -0.2930613  -0.3666126
  -0.6833652  -0.3932809  -0.8429279   0.1308126  -0.1196940  -0.1869938
   0.6435548  -0.3631139   0.8216796   1.3727069   0.8908713  -0.0787363
  -0.1390054  -0.0839113   0.2696561  -1.0563743   0.0607003  -0.4732909
   0.2614431  -0.3139269  -1.0545625   0.0613947   0.3075907  -0.2551645
  -0.2368089  -0.1168611  -0.9773949   0.7231194   0.3002112   0.7191128
  -0.0539811   0.4008804   0.1254972  -0.7760940  -0.0359735   1.1796206
  -0.0504393   0.6031096   0.1105539  -0.0608951   0.1342659   0.2226480
  -0.9720128   0.9806037   0.0528919  -0.4767909  -0.3327514  -0.7156970
   0.1955772  -0.2787983   0.2863776  -0.8770052   0.1252770  -0.8847410
   0.8630368   0.5056386  -1.1472920  -0.2084151   0.4696245   0.1001120
   0.8678763   1.3293830   0.7674608   0.4058236  -0.1195384   0.4561007
   0.2085320   0.0161407   0.0162180  -0.1075955   0.6195436   0.5283820
  -1.6063878   0.4203317   0.7542858  -0.1755360  -0.2385501  -0.0938807
   0.8301953  -0.9894567   1.0472832   0.5662527  -0.0894564   0.0790265
   0.0788762   0.1616039  -0.1331900  -0.1369884  -0.0136890   0.9447344
  -1.2922214  -0.1906441   0.2806803  -0.1508448   0.1545627  -0.1546628
  -0.2731094   0.3480443   0.4172864  -0.6952978   0.1455610   1.1800407
   0.1073191   0.0074883   0.4964448   0.5407527   1.0765300   0.8739397
   0.2699323   0.7336496  -1.4120493  -0.0971652   0.1026090  -0.2697398
   0.5649626   0.4393988   0.0896037  -1.6512639   0.4801590   0.5885802
  -0.1775555   0.0927240  -0.2665827   0.0016896   0.6472626  -0.0699155
   0.6242695  -0.5033602  -0.1774340   0.0962012   0.1713308  -0.0558090
   0.2345053  -1.0846624   1.0039910  -0.1360014  -0.1702118   0.5526217
  -0.1681374   0.1936759   0.0596586   0.3080537   0.3365011   0.7246227
  -0.2405358   0.0310864   0.3049183  -0.0642960  -0.2870685  -0.1640345
   1.7081182  -0.4148712  -0.2963879  -0.5308055  -1.0695627  -0.3126041
   0.0417827  -0.3573875  -0.2482982   1.1435462  -1.1683650  -1.3125453
  -0.2646350   0.2977154   1.2871552   0.0058926   0.3852911   0.4515641
   0.8811556  -0.7734101  -0.7367181  -0.1216816   0.2022686  -0.4290751
  -0.1780353  -0.0936862  -0.0561870  -0.5742711  -0.6611063  -1.1194576
  -0.1953193  -0.6978678  -0.7171107   0.2461730   0.3148314  -0.0335838
  -0.5072468   0.0521496   0.9432813   0.2256990  -0.3951942   0.1690698
  -0.2247645  -0.0284460  -0.0540787   0.6268169  -0.3492274   0.2516198
   0.3434563   0.3447065   0.3760252  -0.0659833  -0.1103738  -0.1880957
   0.2022286  -1.4466967   0.1650280  -0.8770363  -0.5779709   0.1052616
  -0.1551003  -0.3078386   0.1512009   0.1256626  -0.8091144  -0.5360784
  -0.5356497  -0.4679286   0.4977701   0.0031940  -0.1446794  -0.2664481
   0.3771719  -0.5988624  -1.5491316  -1.4794044  -0.4066179   0.1767749
   0.2406712   0.1522640  -0.1488454  -1.0735504   0.7488790  -0.2258488
   0.2901407   0.0400650   0.5749735  -0.0866558  -0.3319074   0.1138611
  -0.7957697  -0.8544260   0.0493398   0.0704673  -0.0719915  -1.2394349
  -0.0296403  -0.3955914   0.0063799   0.8722124   0.0777496  -0.5873921
   1.0295472   0.0968553   0.3240422  -0.1336544   0.0884304   0.0987986
   0.0291525   0.1151507  -0.6568451   1.0120604  -0.6586515   0.1816368
   0.4623048   0.1221020   0.0802176  -1.2108552   0.4068204  -0.9225622
   0.5601939   0.3107605  -0.1237234  -0.0616807   0.0530772  -0.0279877
   0.9853404  -0.4752162   0.1415558  -0.3762064  -1.0953644  -0.5957355
   0.0891538   0.1737141  -0.1376669   0.2637121   0.0402269  -0.2634443
   1.1431500   0.6550778   0.3242393   0.0485017  -0.2436001  -0.0691122
   0.2958491   1.9242604  -0.2704499   0.8148638  -0.3706190  -0.1771397
   0.1031592   0.1260188  -0.2955909   0.0400782   1.2310090  -0.1021183
   1.3880198  -0.1033627  -1.4585477   0.2744170   0.1401134   0.1581697
   1.3627299   0.5184223  -1.2857315  -0.2638690   1.0471530  -0.2425694
   0.1531789   0.1414489  -0.0654902   0.9126751   0.9398557   0.7387279
  -0.5947879   0.2447208   0.9837653  -0.1698488   0.0441265   0.4185880
  -0.7264670  -0.6304609   0.5800725   0.0230977  -0.5567333   0.0439853
   0.0999375  -0.1296871  -0.3576191   0.0502313   0.6959616   0.1953062
   0.4744095   0.3889822  -0.0791261  -0.2671848   0.0758712  -0.0291014
  -0.1259088   0.5825105  -0.1717938  -0.0211551  -0.7436833  -0.0697511
  -0.0502465  -0.1917756  -0.0811349   0.4337581   0.8790536   0.0485485
   0.7189690   0.4450236  -1.5329632  -0.2674467   0.0884220  -0.0925539
  -0.9180663   0.3973699   0.6757746   0.7961088   1.3250057   0.8944302
   0.2362216  -0.4289827   0.1888403   0.2132880  -0.0216208   0.5765492
  -0.7591908  -0.4523154   0.8103639   0.0070133   0.1087455   0.0755474
  -0.6831602   0.2878909  -0.6922882  -0.1526314  -1.4720145   0.6989620
  -0.0348326  -0.2739449  -0.2468086   0.9646982   0.9075331   1.0806067
   1.0474671  -0.1259786   0.3947145   0.3036429  -0.1378023   0.1080327
   0.8896558  -0.1417875  -0.8778546  -0.6903195  -0.6791552   0.3241180
   0.2100731  -0.0366769  -0.3459712   0.1982246  -0.0759602  -0.8705942
   1.8963036   0.7189295  -0.5930085  -0.4627314   0.0253334  -0.0680702
   0.1924060   0.3799079  -0.0716430  -1.1417339   1.6948272   1.9393798
   0.0037970   0.1281185   0.0835339   1.1308027   0.4402492   0.2856293
  -0.1128191   0.3052382   0.4998971  -0.2142252   0.0345238   0.2462781
  -0.5897761   0.4726848  -0.2606060   1.9173707   0.0973121   0.3639950
  -0.2158525  -0.1124251   0.1201720  -0.4285813   1.9587178  -1.0556994
   0.3481453  -0.4592761  -0.4613786   0.2657151  -0.1670060  -0.1639013
   0.5797414  -0.8283192  -0.0161090  -1.0222147  -0.5664397  -0.7859404
  -0.1374538  -0.1026157   0.5255727  -0.6584630   0.5902822  -0.2667877
  -0.8379939   1.1637876  -1.5553598  -0.3824144   0.1302950   0.0678466
  -1.4922998  -0.8515383   0.6570273  -0.5713948   0.8876382   0.5366482
   0.1775134  -0.2690996  -0.1090582   1.1652563  -0.6484827  -0.2839602
   0.6666076   0.4639669  -0.8330365   0.1336086   0.0941174  -0.0071951
   0.5467198  -0.7350828   0.1905282  -0.8171700  -0.0459140   0.8759516
  -0.0770556  -0.2983964   0.0142410   0.0194536  -1.1844908  -0.8243899
  -1.4023933  -0.0567375  -0.1252237   0.0588627  -0.0025149   0.1003915
  -0.2943462  -1.4496066   0.5176297  -0.6606139   0.1967854   0.2581763
  -0.0229759   0.2354231  -0.0724134   0.5695488  -0.0595939  -1.7107673
   0.4874850  -0.3016420  -0.6341257  -0.1454327   0.0315267  -0.3207582
  -0.5985962  -0.4205601  -0.0586346  -0.3298175  -0.1079496   0.4697266
   0.0664810  -0.0211713  -0.0086342   1.7220648   0.2280874   0.6998082
  -0.0661706  -0.7655464  -1.4173319  -0.0533871   0.1179903  -0.0880132
  -0.0018650  -0.0863216  -0.2594708  -0.5048640  -0.3151479  -0.2388142
   0.2711082   0.3540757  -0.2774741   0.3529112   0.0117274   1.4908673
   1.6960004   0.0116930   0.7489708   0.0284332  -0.0823170   0.0690957
   0.1569497  -0.9622129   0.7978517  -0.0665936  -0.7870997  -0.6908414
   0.1615159   0.2311170  -0.0408622  -0.4039442   0.1963711   0.3443726
   0.0346745  -0.2114153   0.6126092   0.1034147  -0.2009326  -0.2218742
  -1.4035164  -0.1038801  -0.1737864   0.1823254   0.7254967   0.4877559
  -0.0438732  -0.3688456  -0.0373124   1.6229141   0.1101626   1.0644351
  -0.6711169   1.7909225   2.2484868   0.0200571   0.0177268   0.1036571
  -0.1714322  -0.7948686  -0.1539159   0.2408818   0.1408936  -0.0554142
   0.0164257   0.1572182   0.3284922  -0.0708114  -0.1875994   1.4261042
   0.3667751  -0.2033756   1.1590712   0.1548176   0.1339897   0.4306672
   0.1831168  -0.6525477  -0.5625352  -0.3124591  -0.6911797   0.3421216
  -0.4352809  -0.2104986   0.2498513  -0.1715923   0.6313218   0.9197229
   0.1470668  -0.7320707  -0.1349269   0.4380915   0.2547397  -0.1509726
   0.4113604  -0.6861768  -1.6485226   0.8698613   1.1874926   0.7945892
   0.2688300  -0.2584643   0.3763689   0.0038745   0.5838727   0.3597226
  -0.7991787   0.7221171  -1.4997520   0.0012615   0.0453737  -0.0052625
  -0.6252804   0.2535592  -0.2767637   0.2845304   1.4529117  -0.8064092
  -0.0997373   0.1756991  -0.0415013  -0.3100227  -0.5716340  -0.4008937
   0.9130591  -0.2541099  -0.4470450   0.1284247  -0.1295325  -0.0393673
   0.0480869  -0.6264670  -0.3141837  -0.3287639  -0.7042046   0.0009034
  -0.0138068  -0.1043785  -0.1491469  -1.3308289   0.0340472  -0.1473177
  -0.2632497   0.1813958   0.3067579  -0.0168589   0.2713380  -0.0033805
   0.3931707  -1.5790552   0.7692147  -0.0774674  -0.3180533  -0.1922536
   0.1541993  -0.0146371   0.0730147  -0.9759880  -1.2731017  -0.7390422
   0.3100896   0.5942055   0.3088097   0.3903930  -0.2052070   0.1370903
   0.3186732  -0.7643165   0.4012605  -0.6327562  -0.7478064   0.7652116
   0.3161543  -0.0488011   0.0333651  -0.3491266  -1.1860701   0.4477487
  -1.0455631   0.7471246  -1.8153310   0.1477208  -0.1728648   0.0784903
  -1.0374986   0.4903757   0.0784820  -0.1682100  -0.5327083   1.2568108
  -0.2004813  -0.0635030  -0.2408417  -0.6832197   0.5348636   1.0738520
  -0.6952836   0.2477010   0.4649716   0.2564885   0.0980546   0.2416679
  -1.4741084   0.6463645  -0.0705767   0.5410939  -0.1024640   0.5453502
  -0.0857150   0.1950398   0.0497003   0.8724160   0.7189666   0.4255012
  -0.8537996  -0.7797771  -0.4940277  -0.1444744   0.2146325   0.2879383
   0.9000346   1.0330761  -1.2498070  -0.1606341   0.1723733   0.2983635
   0.1495577   0.1136629  -0.2146518   0.4575736   0.2454119  -0.3453740
  -0.0428531   0.3691703  -0.4906914  -0.1171614   0.0074225   0.1475956
  -0.2802096  -0.9087694  -0.2263636   0.4444934   1.2067966  -0.2606579
  -0.1145083   0.0037313   0.1764215   0.8139302  -0.3093923   1.8817228
  -1.1817509  -0.7594397  -0.4009473   0.0772750   0.1017720  -0.1512309
   0.8262444   0.9760330   1.1123393   0.2943827   0.4894310   0.6295617
   0.2620248  -0.0967814  -0.2952145   0.6273018  -0.9386816  -1.3367474
  -0.1267978   0.7094781   1.9589935  -0.3254846   0.0486307   0.1798318
   0.6009849   1.1566455  -0.1452605  -0.0036016  -1.5707969   0.2432156
   0.3582186   0.0865089  -0.2615351   1.2022372  -0.0383798   0.5388169
  -0.1966536   0.5116665  -0.5699795   0.3009654  -0.3603260  -0.0775467
  -0.5927927   0.7062869  -0.3247679   0.7314970   0.4140612   0.7011153
  -0.2785747  -0.0724518  -0.3437102  -1.0057505   0.2955452   0.4986383
   0.2930386  -0.7063785  -0.2500320   0.0456240  -0.0358077  -0.0521381
   0.4543022   1.2785233   0.6019938   0.9364988   0.2574166  -0.8467228
  -0.0380755   0.0967350  -0.1666566   0.6794587   0.7228478  -1.0230883
   0.4605555   0.7719982   0.0561973   0.1032374   0.1116997  -0.2162779
   0.1732609  -0.1278960  -0.4646573   1.1417544  -0.9628902   0.1983428
   0.1470649   0.4802198   0.2484906   0.4743184  -0.8239256   0.1577657
  -1.4495187  -0.7393152   1.1072586   0.1150573  -0.2638196   0.0095942
   0.7806209   0.2028870  -0.2620485  -0.3377539   1.3575226   0.3432444
   0.2564242  -0.2900025  -0.3004961   0.2092584   0.0543241  -1.3160414
   0.1531378   2.6355108   0.7016650   0.0837690   0.2657092   0.0280552
  -1.1365012   0.2093083   0.8904253  -0.0932185   0.4968732  -0.1711208
   0.0693161  -0.0472251   0.0066034  -0.3762521  -1.3067487   0.8846992
   0.8970634  -0.6070097  -0.5786451   0.0443179   0.1316166   0.2427799
   0.4580197   1.4660257   0.7358086   0.0949564  -0.5322395   0.6353145
   0.3208241  -0.2361514   0.0187109   0.4055814   0.6987921  -0.5540396
   0.6949893  -0.7939160   1.0377938  -0.3923859   0.3549208   0.0850807
   0.9866727   0.0562945  -1.2741264   0.2235394   0.5117648  -0.9371582
   0.1504825   0.1761528   0.0869025  -0.5786201  -0.3110019  -1.0063488
   0.0407316   0.7128157   0.5517564  -0.2852238  -0.1453016  -0.2358806
  -0.1827619  -0.6781651   0.6589195   0.7609248   1.1075178   0.1957378
   0.0642517  -0.0010674   0.0081225  -0.4700468  -0.2422159  -0.7445722
  -0.3049174   0.0224097  -0.7556798  -0.1506269   0.0562342   0.3778019
  -0.7607644  -1.1655070   0.7939648  -1.0556459  -0.1527346   0.0527839
   0.0534716  -0.0054332   0.2797685   0.0618373  -1.2347661  -1.7964965
   1.0420525   0.7224176  -0.9233073   0.2793565  -0.1543112  -0.0986125
  -0.9069834  -0.0032330  -0.8245189  -0.2800756   1.3520030   0.9338018
  -0.2391044  -0.1936137  -0.1176131   0.2310575   0.4874621  -0.2832376
   0.1852538  -0.0472619  -0.3772750  -0.0287641   0.0994562   0.1069049
  -0.5916513  -1.7428091  -2.0553546  -1.0724376  -0.5114601  -0.2421115
   0.5372685   0.0695866  -0.1921318   0.9993874  -0.5609939   0.1343424
   0.9093838   0.2791337   0.3048306  -0.0353424   0.0932523   0.1286153
   1.3931433   0.0883138  -0.0652125  -1.1680331  -0.1599011  -0.6361941
  -0.1768864  -0.1362168   0.0289823   0.4542822   1.2708448   0.3636838
  -0.7108880  -0.5152004  -0.7901639   0.0507436  -0.2361672   0.0826478
  -0.3455090  -0.1992008  -0.2871120   0.3085101   0.8073976   0.6262611
   0.4349722  -0.0274937  -0.1571164   1.0971650  -0.4285851   1.1948293
  -0.8333950  -1.2189703  -1.0130352  -0.2414280   0.1205641  -0.0514493
  -0.4512845   0.9204612   0.5904727   0.1378135  -0.2260340   0.0411040
  -0.2737286   0.0302227  -0.0219917  -0.0052343  -0.2545070   0.3409532
  -0.5246313  -0.3204949   0.0312949  -0.2369401   0.1269124  -0.3813093
   1.4548653   0.0405295  -0.1043153   0.2221424   0.3586750  -0.8163606
   0.0520498  -0.2476372  -0.2012992  -1.4500796   0.0608496  -0.1319256
   1.2101410   0.3925054  -0.2028305  -0.0395722  -0.0825211  -0.0160369
  -0.1519748   1.7723569   0.0136863  -2.4377455   1.6631367   1.4692764
   0.1976909   0.1956772   0.3085555  -0.7483834   1.4015801   0.7708108
  -1.6316456   1.0564903   0.3867715  -0.4515487  -0.2170366  -0.0536767
  -0.3087692  -1.1929046   0.6768916  -0.6019021   0.1634627   0.2102448
   0.1039293   0.2047495   0.1824791  -0.8009502   0.3130856  -0.9441147
   0.0913034   0.2725174  -0.4444223  -0.1615845  -0.3006548   0.1177603
   1.4919864  -0.8171237  -0.7030960   0.5225929  -1.7369510   0.3885427
   0.0622016   0.3460263  -0.5442661  -0.4387787  -1.3163458  -0.2018608
  -1.3608272  -0.9197879  -1.6102150   0.0052275   0.0630492   0.0741833
   0.2437715  -0.1143528  -0.9599731   1.2128905   0.1019791  -1.3977484
  -0.1306640   0.2788005   0.1467386  -1.7825284  -0.3358526  -1.7787556
  -1.0351110  -0.2995029  -0.1755182   0.2935984  -0.0868348  -0.0244778
  -0.2698234   0.1484111   0.2489679   0.0370719   0.8879139   0.0203825
  -0.5512044  -0.4549445  -0.0339201   0.4527883  -1.2004638   0.1998142
   1.3206199   0.2739828   0.8437061   0.1802229  -0.1689815  -0.0641409
   0.1080150  -1.1834507   0.3653557  -0.4212154  -0.5405445  -0.3438815
   0.0179586  -0.2153311   0.0792926  -1.3050337   0.5871031  -1.7134916
  -0.2683896   0.6897971  -1.2857944  -0.0159358  -0.0899419  -0.0542670
  -0.0227514  -1.1148679   0.1636836  -0.9867760   1.8445844   0.3926096
   0.0683167  -0.2765472  -0.1551109  -0.2500686  -0.6687708   0.6550626
   0.2767933   0.5122743  -0.3326905  -0.2193679   0.0671574   0.1586261
  -0.4761669  -1.8918864  -0.7698918   1.3771923   0.2871565   0.3450976
   0.1825139  -0.2424481  -0.1425553  -0.5182001   0.6150072  -0.5235921
  -0.5514321   0.3253602  -0.3547328   0.0200170   0.1499799  -0.1113255
  -0.7063177   0.9892942  -0.4427434   1.9242199  -0.0890380  -0.3857326
  -0.1760264   0.1257658  -0.0808833   0.1208365  -1.6908595  -0.4895334
   0.7218108  -0.6197681   0.4596661  -0.1254980   0.1132802   0.1070014
  -0.0754816   0.5831680  -0.9087538  -0.8608558  -0.7533715   0.1023236
   0.0728784   0.1377518  -0.4573599  -1.8884278  -0.1560300  -0.2665327
   1.5452809  -0.9213591   0.9042034   0.1002425   0.2854140   0.1414565
   0.0207121  -0.5427793  -0.1511559  -0.0145001   0.5685340   0.7466301
   0.0132668  -0.0101982   0.1949694  -0.1079578   0.8780064  -0.2365158
   1.5461087   0.0789864  -1.3324396  -0.1183541   0.2368606   0.0483292
   0.9687548   0.9569781  -0.9994470  -0.1444427  -0.2995681   0.0428159
   0.0285632   0.0809644  -0.1844375   1.4561693   1.6186409   1.3242198
  -0.7803722   0.9527202   0.0596617  -0.6335526  -0.0596536   0.0564431
  -0.5113284  -1.3697621  -0.2167667  -0.5924056   0.3223559  -0.1925659
   0.0072799   0.2376478   0.0223163   0.8603831  -0.2549247   1.1374687
   1.3991714   1.0615990   0.8808194   0.0700760  -0.5075539  -0.0880311
   1.1790299  -0.7253175  -0.1947349   0.8921580  -0.3590570  -0.1245583
  -0.0779720   0.1603078   0.0372135  -0.2606244  -0.4257824   0.0032668
  -1.0346161   0.3321612  -1.1983158  -0.0202826  -0.0112096   0.2477118
  -1.0552045  -0.7685855   0.5985724  -0.5489848   0.2589207   1.1868946
   0.4336724   0.0126340  -0.1076182   0.4823809   0.5553329  -0.4079001
   0.5235620   0.1511462   0.7279468  -0.0613108   0.2217946  -0.2001113
  -0.2156422  -1.6169740   0.5338385   0.6880018  -0.6435834  -0.4175221
  -0.3408160   0.2753539  -0.0371928  -0.3363507  -1.1132810   1.1993836
  -0.6561546   0.5704232  -0.0560851  -0.1402814  -0.4449429   0.0594153
   0.8211092   0.3655009   0.6138354  -1.0358161   1.2171023   2.0373794
  -0.4125355   0.1239663  -0.2549094   0.5261986   0.9797020  -0.0480628
   1.0024618  -0.1512641  -0.2588939  -0.0043393  -0.0656922  -0.2948506
   1.2726330  -1.1520378  -0.1732603  -0.5249465   0.3365897   0.5878370
  -0.1822272   0.2618384  -0.2153331   0.4369496   2.3500355   0.3513203
  -0.5374408   0.6137050  -1.2911283   0.1963926  -0.0628058  -0.2046948
   0.5708188  -0.2727943  -0.5041704   0.5394689   0.0554222  -0.3874619
   0.0874565  -0.1593119   0.1524782  -0.8091666   1.1153464   1.8393808
   0.4179829  -0.6632249   0.5775926  -0.1159937   0.5474677  -0.1316584
  -0.9449332   0.5468807   0.1432672   0.9647156   0.4505281  -0.5583586
   0.0754954  -0.3653390  -0.3294497   0.1283201  -0.1492661   0.0343254
  -0.2398757   0.8145446   0.5669542   0.1879983   0.1541269  -0.0144984
  -0.0024212  -0.4530094  -0.0884252   0.2547862  -1.2343083   0.5002377
   0.1098276   0.0486919   0.1958493   0.8487782  -0.0042093   0.2230764
   0.0321989  -0.1056582  -0.5735993  -0.2260008  -0.4024095  -0.0057014
   0.7989014  -0.6595788   0.9996167  -0.7330414   1.2535398  -0.5926402
  -0.3765774   0.0135076  -0.4418645  -0.6070183   1.1849288  -0.7070502
  -1.3644197  -0.9186005   0.8639090   0.1133510  -0.0289804   0.2139356
   0.1392975  -0.6252113  -0.6326162  -0.6177323  -0.2354843   1.1369942
  -0.2365070  -0.1865464   0.1284955   0.0563787  -0.0862329   0.5895262
  -1.0858769   0.8105399  -0.4896696  -0.1570087  -0.4187097  -0.0625036
  -0.6747657  -0.4465379   0.7017044  -1.1301567   1.5261305   0.5165986
  -0.0287502   0.1346964  -0.0160181   0.2502512   0.6528551  -0.0490103
   1.2628858  -1.2177795   1.5587931  -0.0859277  -0.0828296   0.2979365
   0.9894408   0.1797194   0.5566913   1.1656328  -0.2898338  -0.1333240
  -0.1252025  -0.1418360   0.3614100   0.3349982  -0.6737043  -0.6423028
  -0.0272029   0.0160566   1.0499665   0.0997894  -0.1188930  -0.0821899
   0.3360451   0.6883021  -1.3550567   1.0624505  -0.7171277  -0.5546232
   0.1195407  -0.0905478  -0.0867445   0.0814379   0.9827441   0.6845204
  -0.2946378  -0.7681562   1.4000235   0.1164906   0.0464505  -0.1185135
  -2.5156447  -0.7956102  -0.1562567   0.0631222   0.3662415  -1.0243880
  -0.0974509  -0.0942284  -0.2777765   0.0460388   0.6207377  -0.0120364
   0.9533155   1.1282536  -0.6487119   0.1477650  -0.4457994   0.1671137
   0.8261513   0.0969335   2.0540200  -0.2478944  -0.9613411  -0.0514119
  -0.2751279   0.3103928   0.2342430  -1.4774007  -0.2327837  -0.2752700
  -0.5046525  -0.2424693  -0.0668267   0.1292411   0.5158305  -0.2253230
  -0.9179488  -0.7148051  -0.3454105  -0.3922536   0.7611170   1.9121590
  -0.4689848   0.1168201   0.1508610   0.3481487  -0.5038935  -1.2694111
   0.3360774   0.9645586  -0.4768730   0.0987464  -0.2232916   0.1246399
  -1.2552471   0.4063173   1.1350606   0.1834315  -0.2489458   0.0889994
   0.1116293   0.0671658   0.1601508  -0.9372392   0.4294283  -0.4051599
   0.7528378   0.1836696   0.4821188  -0.2045490   0.2632170  -0.0666700
   1.2796981  -0.3901219   0.4899036  -0.2111484   1.3095012  -0.5196203
   0.1728992   0.1031723  -0.1910642   0.3315655   0.7789584  -0.1543708
   1.4745345   0.2714869   0.5700947  -0.0075679  -0.1326552   0.1546005
  -0.8409546  -0.7521989  -0.9533194  -0.1780256  -0.1844520  -1.3999503
  -0.2034615  -0.0875244   0.5712488  -0.6895794   0.5748356   0.6983535
  -0.9946240  -0.1878817   0.4781869   0.2699533   0.2481196   0.2285100
   1.1301684   1.2079816   0.3976998   1.6908104  -0.3517834   1.6823669
  -0.0269346  -0.0737357   0.1891290   0.5543707  -0.8092222  -1.3801644
  -1.4303783   0.0443751  -0.0833591   0.1680852  -0.4023643   0.0660670
  -0.8268953  -0.2525587   0.0562446  -0.2166340  -0.6539784   0.9169734
   0.0747530   0.0303720   0.1206690   0.1901324   0.5891683  -0.0771662
   0.1677091  -0.2278428  -0.4990609   0.0631266  -0.3467806   0.0030772
  -1.1289919  -0.4423893   0.1143069   1.4034206  -0.5603004   0.1238078
  -0.0067600  -0.0755592   0.0568023  -0.5342361  -0.3883480  -0.9544608
   0.2090207  -0.3891819  -0.2055402   0.1607501   0.1405062  -0.5247272
  -1.5550604   0.1324195   0.0399554   1.0653520   0.7246304   0.0915877
   0.1737377  -0.1163170   0.1200777   0.0597205   1.1217843   0.4126577
  -0.5337376   1.4880678  -1.2743100   0.0021969   0.3578807   0.0777377
  -0.4636168   0.3378892  -0.4287797  -0.3633924  -0.1519947  -1.5355331
   0.1860348  -0.1034350   0.2730146  -1.1278624  -1.2612387  -0.0550410
   0.0611953   0.4280025   0.8128315  -0.1004915  -0.0981820  -0.0774380
   1.6209609   0.9968622   1.1096691   0.8211172  -0.0808241   0.3773230
  -0.1336856  -0.3938102   0.0662060   0.3243438  -1.0233672   0.7789826
  -1.6085268  -0.2249208   1.3427849   0.3969466   0.0248795   0.1063676
  -0.0877243   0.2862664   0.7198230  -0.5192932  -0.2508955  -0.6240692
   0.0519112   0.2571447  -0.0590760  -0.4830448   0.2611802   0.6241249
  -0.9166295  -0.0044645   0.6634532   0.1821701   0.1111201   0.2821867
  -1.6073767  -2.5959333  -1.3373445   0.1334089   0.3457571  -0.5789297
   0.3195820  -0.1395812   0.0930139   0.4715931  -1.6601244   0.8861066
  -0.1520197   0.1409391  -0.3455653   0.0164562  -0.0047364  -0.1421101
  -1.3163610  -0.9614930  -0.7011109  -1.0541530  -0.4283473   0.1144891
   0.0988724   0.1523198   0.1357935  -0.0783821  -1.3991369  -0.3406780
   0.4239548  -0.9779259   0.9261825   0.2050428  -0.0752754  -0.3186193
   0.3341605   0.3594092  -0.2765589  -0.1396215   0.2654625  -1.8155545
   0.1922874  -0.0639356   0.2334654   0.3930652   0.2349869  -1.0048889
  -0.0281828   0.8017994  -0.3247724  -0.1081961  -0.0370459   0.1272585
  -0.5375209   0.4202022   1.2415487   1.2039634   0.5768123   0.3561812
   0.3435141  -0.0904920   0.0565947  -0.5304986   0.0133222  -0.9374695
   0.9815765   1.2248956   0.7704131   0.0025386   0.0397242  -0.0496438
  -0.1034386   0.6423990  -0.0557717  -1.7080090  -0.5705232   0.7899073
   0.0566458   0.0580227  -0.0774111   0.8659249  -0.6833550   0.5608926
   0.9459377   1.3449698   0.1305723  -0.2243843   0.0800975  -0.0634564
   0.2105669  -0.3331077  -0.2310499  -0.6857210  -0.2801974  -0.6918328
  -0.0522515   0.2885785   0.0600249  -0.1561055   0.0069197  -0.2864015
  -0.6994455  -0.6138954   0.2784497  -0.1610206  -0.4414986   0.1234840
  -0.0750237   0.7647037  -0.1339077  -0.1493478  -0.1244492  -0.0030357
   0.3057418  -0.3125281   0.0750590   0.8023484   0.6976555  -0.2564770
   0.4227564   1.0197003   1.0813470   0.1653982  -0.2235725  -0.1610599
   0.0136528   2.0156013   1.3587413  -0.2949411   0.5656036  -0.0286603
  -0.1975322  -0.2441511  -0.2472808   0.1933605   1.0986191  -0.9086533
   0.9899661   0.7376219  -0.0023702   0.2060079   0.0590189   0.0911512
  -0.0106546   0.3915709  -0.7391421  -1.6532441   0.7584391   1.5652182
  -0.0244328  -0.0192681   0.0715569   0.3231332   0.6734274   0.5117492
  -0.1458825  -0.7649306  -0.5679066   0.3461996  -0.1557010  -0.0787611
   0.1822047  -0.7391943  -2.1891711   1.1390512   2.5804578  -0.6057652
   0.4030179  -0.0414494   0.1073133  -0.5615063   1.7734070   0.5719926
   0.2187873  -0.8929600  -0.6929575  -0.0089987  -0.0030499  -0.0690820
   0.4203884  -1.7753667  -0.1068759   0.3765470   0.0171547  -0.7549443
  -0.0214482  -0.1848047  -0.0087910  -0.4826191   0.1851507  -0.4587882
   0.1467895  -1.2358632   1.1816883  -0.1339360   0.1175075  -0.3050460
  -1.5159236  -1.0811601   0.3249505   0.5529167   0.7663183  -0.4037393
   0.0222625   0.0366997   0.2870359  -0.1769240  -0.3579725   0.0060893
  -0.0125004   0.5864705  -0.3768859   0.3850776   0.2353489   0.0187327
  -0.0725787   0.1572181   0.4196609  -1.7023147   0.4663606  -0.1688979
   0.1877506  -0.1964890  -0.0467820  -0.3064015  -0.2253898  -0.2917905
   0.4922472   0.0800846   0.2795258   0.2066984   0.4906696   0.0437446
  -0.2676747  -0.6629646   1.0767139   1.0922962  -0.3008107   0.6804987
  -0.0488795   0.1690388  -0.0741023   0.2332971   0.1564119   0.2744425
   1.7022871   0.7654118  -0.2058889   0.2975550  -0.0379150  -0.0445255
  -0.0019787  -0.0201045   0.2476789  -0.0169217   0.3173516  -0.1849948
   0.1102514  -0.2005974   0.0322594  -1.2399614  -0.2714575   1.0647439
   0.8859181   0.3748828  -1.2775180   0.0913101   0.0849135  -0.0579441
   0.0808394  -0.4387702   0.1131504  -0.7903038  -0.7170919   0.9110516
   0.0471126   0.2155809  -0.2096841  -0.5846832  -0.5234784   0.5855287
  -1.1664064  -0.4692826   0.8308448   0.2573030   0.2180635  -0.2173891
   0.2884258  -0.1433631   0.0576316   1.2434469   0.2049117   1.6379294
   0.1584419  -0.0026623   0.0075325   0.0569564  -0.1701066  -0.1760456
  -0.5473661   1.4853005   0.7212578   0.2258953   0.1565441   0.0401568
   1.3451051   1.2125372   0.1255114   0.4108671  -0.3753214   0.5095846
  -0.1599700   0.0109000   0.0721559   0.5629101  -0.0260570  -0.3804207
   0.6110466   0.1992782   0.5737424   0.2395665   0.1294768  -0.1785444
  -0.8799468   1.7251911   0.3354993  -1.0619002  -0.3570410   0.8267056
   0.3025076  -0.1588925  -0.0029543  -0.1631786  -0.6522985   0.3250758
  -0.0740311  -0.4762136  -0.9266590   0.3931849   0.0102656  -0.1996656
  -0.0419177   0.8212628  -0.5372064  -0.0417773  -0.4679387  -0.0584239
   0.1470312   0.1939057   0.2764785   0.3710078   0.0674998  -0.7238694
  -1.0821285  -0.2482781  -0.1230102   0.0915281  -0.2013598  -0.2094583
   0.2968815  -1.7575344   0.9192069   0.6023570   0.2156732  -0.9876992
  -0.0856022   0.0935785  -0.0225588  -0.5334375   0.4558613   0.5793534
  -0.4826831   0.8662241  -0.3110963  -0.0675959   0.1585742   0.1043208
   0.8083163   0.7258115   1.2615217   0.7642651   0.1024681  -0.0223478
  -0.0264878  -0.0877594   0.0822033  -1.3719570  -0.8049385   0.9001826
  -0.3357220  -0.2417904  -0.0052253  -0.0768793  -0.2543125  -0.0639834
  -0.8136220   0.9195811  -0.0733460  -0.5459308   0.6483020   0.0444988
   0.1111972  -0.3387372   0.0572381   0.3082737   0.0208297  -0.1484856
   0.7506001   0.1081226  -1.2394712  -0.0256606   0.2018413  -0.0991420
  -0.8585690  -0.1173795   0.1801164  -1.5114141   0.3215727   0.0560868
   0.1978156  -0.0909541   0.2346655   0.8372942   2.1305879  -0.0740073
   1.8131226  -1.6779138   1.3212564   0.2418930  -0.0382731  -0.0752031
  -0.3433563   0.1664547  -1.0621204  -0.3985972   0.1885603   0.3425331
   0.0029599   0.1550422   0.2982310   0.0279752  -0.4442382  -0.8757091
  -0.9692119  -2.1544247   0.7811935   0.2240746  -0.0473984  -0.3059738
   0.0703553   0.4600297   1.0608475   0.0929538  -0.2901961  -0.7907565
   0.0597760   0.1725039  -0.1418431  -1.0543998   0.4588313  -1.1312395
  -0.3394461  -1.2564280   0.5157984  -0.2543744  -0.1214746   0.4488285
  -0.1181674  -0.0325347  -1.1148337   0.7100354  -0.0992557  -2.1991695
   0.3096958   0.5978707  -0.0911279   0.2328899  -0.4044138  -0.5580872
  -1.6697695   0.6479674   0.2108824  -0.0723418  -0.0530127  -0.0404474
  -0.3510959  -1.0763345  -0.6751664   0.0773637  -0.1764143  -0.5687349
   0.1221305   0.0306538  -0.1480490   0.6489417  -0.0482494   0.3059052
   0.1128939   1.2841467  -0.1201947  -0.2037748  -0.2680999  -0.1046746
  -0.4412308   0.9586962  -0.2631462   0.0047042   0.8856300  -1.4281869
  -0.0456679   0.2660295   0.0261626   0.4052190   0.0819936   0.0450219
   0.5250516  -0.0464806  -1.1463771  -0.4150441  -0.2643216   0.0186265
   0.1612772  -0.6525321   0.5121470   0.4576371   0.3558232   0.0037289
   0.1532355  -0.0132197   0.2293285   0.8035564  -0.1680596   1.3923901
   0.2233202   1.2178213  -0.7500559  -0.0237315  -0.0131723  -0.1567012
   0.1687072  -0.6818141   0.1663832  -0.0232005  -0.6667576   0.4806080
   0.0414075   0.3298065   0.0485835  -1.6735734   0.1160968  -0.5208170
  -0.0498932   1.0023050  -0.4159063  -0.2884684  -0.0939157  -0.1986007
  -0.5638470   0.3582547   0.8566187  -0.7520198   1.6871884   0.9260915
  -0.1240334  -0.0772802   0.1964153  -0.6341822   0.9933181   0.2065548
   0.1075883  -0.6205915  -0.4727895  -0.0129114  -0.0413860   0.0651240
   0.2999296   0.4403621   0.0304668   0.8883488   0.4770589  -0.6006283
   0.1686406   0.4094803   0.0319125   1.1006573   0.1586478   1.0622614
   0.1092838   0.6089272   0.1555299  -0.1862291   0.2875372   0.1233994
  -0.3721460   0.4009387  -0.8600220   0.3598478  -0.7832782   0.3899849
   0.1206611   0.0333218   0.2581133   0.0614557  -0.1295274   0.3583409
  -1.8900575   0.1456992  -1.1101441  -0.1621967  -0.0122721  -0.2738299
   0.2505522   0.8425075   1.2664138   0.6992129  -0.6665744  -1.0417350
   0.0064351   0.0063227   0.2194991  -0.6878440   0.2662797   0.1742878
   0.2447087  -0.3410040   0.2939748   0.1252232  -0.1785224  -0.1280098
   1.2025697   1.5842564  -0.8903091   0.8744378   0.6102287   0.6689527
  -0.2104065  -0.0892389  -0.0044522   0.0433487  -0.7653011   0.1808773
   0.1739267  -0.3019690   0.6543978   0.1408929  -0.0950441   0.2723046
   0.8491056   0.4433795  -1.0171755   0.5243437  -0.8843059   0.3958684
   0.0951655   0.1674466  -0.3780342  -0.2403048   0.1953933   0.5566846
  -1.0467564  -0.6125021  -0.4587438  -0.2033452   0.1646541  -0.2805250
   0.8446595  -0.6843276  -0.0161704   0.1717777   0.2583375   0.5852581
  -0.3992889  -0.1282363  -0.1274551   1.2797050   0.4188206   0.2088266
   0.5346574  -1.0110769   0.8579530  -0.1829594   0.3061861   0.1275267
   0.3881266   0.3370185  -0.6733201   1.0825931  -0.9867136   0.1870177
   0.1620801  -0.0159697   0.2018744  -0.0495526  -1.4396479  -1.8611018
  -0.8516826   1.8696485   0.1733432  -0.0265818  -0.2877685  -0.2489699
   0.9027331  -0.6016519  -1.1138852   0.5567354   0.4573524   0.0641714
   0.2416267   0.1039118   0.2862787  -0.7751158  -0.3361180   0.3812164
   0.5880364  -0.1792252  -0.2785903  -0.3158102  -0.2046016  -0.1318596
  -0.8956088   0.4945641  -0.2840584   1.4545697  -0.0743183   0.5781543
  -0.4155427   0.0119473  -0.0126481  -0.3673140   0.4099490  -1.1960068
   0.2571341  -1.2758148   0.8919290  -0.3110549   0.1385443  -0.1921819
  -0.7187870   1.0763462  -1.3461509  -0.5850230   0.2356095  -1.0658441
   0.3035689  -0.2603391  -0.0654522  -0.4487448  -0.7929047   0.0226251
   2.0987883   0.2454656  -0.9593420   0.2089437  -0.2284987   0.1494516
   1.3496918   0.0605403   1.6604419   0.7326677   0.1416497  -1.0095069
   0.0555183   0.2470136  -0.1618377  -1.1320374   0.4836269  -0.6466954
   0.6203815   1.7432759  -0.7350105   0.2329056  -0.1773804   0.2308072
   0.6068296  -1.2124828   0.1630657   1.2220980   1.0990415  -0.0169821
   0.2454655  -0.2181417   0.1954159   0.5132382  -0.2361514  -0.9722569
  -0.2130519   0.0100218  -0.7380245   0.0913572   0.0956347   0.0976572
  -0.2421748   0.7057600  -0.0258214  -0.2405162   0.3544933  -1.0245794
   0.1701823  -0.0233966  -0.0345939  -0.1759517   1.0232885   0.6629001
  -0.4370138   0.9989319  -0.6659558  -0.0056009   0.1621275   0.0556514
  -0.8489896  -0.9075325  -0.5954524   0.1071224  -0.2153890  -0.1551323
  -0.2100562   0.0808991  -0.0156135   0.8534106  -0.3433624  -0.0875721
  -1.1306734  -0.8509756  -1.0864175   0.1389300   0.0356321   0.1219181
   1.3403612  -1.4916878   0.0786729   0.5941963   0.2523173  -1.7883657
   0.2288978   0.3298647   0.0051798  -0.6483213   0.0137996  -0.0348538
  -0.0408848   0.5674802   0.6141087  -0.2109483   0.0217043  -0.0512661
   0.5710783   0.2635649  -0.0862717   0.2277780  -0.1752751  -1.0120774
   0.2382279   0.1253562   0.1437723   0.5129500   1.1610242  -1.0032672
   0.2428660  -1.4912403   0.5841424   0.1608950  -0.0571541  -0.0731249
   0.5384852  -0.9121981  -0.6580254   0.8453769  -0.5751305   0.1749899
   0.1872933   0.0941799  -0.0886457  -0.9531068  -0.4044622   0.8396149
   0.2221805   0.2648865   0.1797987  -0.0002543  -0.2557330  -0.3721430
  -0.3893850   0.6320404   1.4318918   0.0748316  -0.0116480  -0.1925059
   0.3359861  -0.0847073   0.3150308  -0.3543485  -0.2654648  -0.0494420
   1.5317750   1.5622207  -0.3415122   0.2884326  -0.0679082  -0.0064767
  -0.4370802   0.3343406   1.4209869  -0.4902909  -0.6332239  -0.1388077
   0.1847413   0.2025358   0.1782734  -0.4269666  -1.4123867  -1.4994836
  -0.0311651   1.2336588  -0.1072780  -0.0117735  -0.0615993  -0.3066067
  -0.3409878   1.1362500   0.4105841  -1.2581411  -0.5090443   0.1766741
  -0.1448973  -0.0134685   0.4945765  -0.7698960   1.8568981   0.0336931
   0.3458168   0.3327064  -1.4397365  -0.1289979  -0.0227719   0.3958890
  -0.3422504   0.2997280  -0.0961381  -0.3315072   1.3873218  -1.1012899
   0.0771656   0.0537985  -0.0010023  -1.2595704   0.3169577   0.9394853
  -0.4771762  -1.2315034  -0.5643875  -0.1711414   0.2276409   0.0876499
   1.5630561   0.9656154   1.5372414  -1.2037483  -0.4294738   0.3009846
   0.2327768   0.1815623  -0.2526379  -1.9334870   0.7161473   0.2961501
  -1.6873987   0.6381272   0.1091967   0.1671323   0.1168761   0.0330808
  -0.4106365  -0.3699015   0.9892758  -0.6802477   0.8692631   1.3203873
  -0.1090001   0.0826088   0.2039948  -0.7186991  -0.8583524  -0.0374464
  -1.3826573  -1.1579174  -0.4449615   0.1906238  -0.0155958  -0.0935197
  -1.5848091  -1.1356219   0.2314587  -1.3357052   1.2864432   0.6251437
  -0.4203936  -0.2786042  -0.2965861   0.1742658   0.7843402  -1.8274044
  -0.0551910   0.4068883  -0.5484747  -0.3350515   0.0728061   0.1805263
   0.5563666  -0.7062688  -0.3396708  -0.2091282  -0.9219919   0.6258069
   0.0613097   0.1653915   0.0325833  -0.7660132   0.6251764  -1.1550855
  -0.1322592   0.0892729   0.6540286  -0.1528386   0.1928770  -0.2417191
   0.2481951  -1.0647151   0.4728106  -0.1608674   0.7141507  -0.1847280
   0.0508362   0.0896720  -0.0971533  -0.0496859   1.1906623   0.3855301
   0.5971094   0.3344345  -0.7141521  -0.1887018  -0.0248490  -0.0374387
   0.5485580   0.7833172   1.7873237  -1.0435351  -1.3300293   0.0579320
   0.2921465   0.0188541   0.1271451  -0.7006582  -0.6317751  -0.8943818
  -0.3813932  -0.3343757   0.3036676   0.2160256  -0.0892583   0.2310759
  -0.8604562   0.0963246  -0.6099140   1.6002559  -1.1753030  -0.6930439
  -0.0495249   0.1147588  -0.4567207  -1.8680281  -0.7457153   0.3786657
   0.0503504  -0.3445076   0.8486991  -0.2620765   0.0137792   0.1969932
  -0.8180639  -0.2572009   0.4714577   1.6280516   0.0081730  -0.4284396
  -0.0172924   0.2159643  -0.0137998  -1.2433604  -1.1538604  -0.7656557
  -1.7528027  -0.3891273  -0.6732841   0.0210164  -0.0739794  -0.3416884
   0.7125629   0.5089249   1.2919284   0.4487530   0.2202539  -0.1195518
   0.1337523   0.0137724   0.0979695  -0.1879214   1.3195975   0.3951070
  -0.3646623  -1.5454474  -0.6246505   0.2274358   0.0091992   0.1610836
   0.2509766  -0.7634734   0.6108323   0.2286207   0.4915248  -0.5442480
  -0.1850164   0.2142619  -0.0722971   0.6454384   0.6301903  -0.0582571
  -0.1001518   0.7620240  -0.8621521   0.0037360   0.2242446  -0.1007357
   0.2193027  -0.3960282  -0.1002234   0.0057239   1.3777408   1.0834895
   0.2015283  -0.6162574   0.2317261  -1.1636673  -0.6408764   0.4599224
  -0.8819970  -0.3711156   0.7766062   0.0275709   0.1043051   0.3646107
  -1.5025938   0.6602727   0.5584890  -0.0735362  -0.2448724   2.0800716
  -0.2418696   0.3273454   0.0191396   0.5167199  -0.2277527   0.3050051
   0.2122252  -1.1210240   2.0055138   0.0686514  -0.0245026  -0.3200866
  -0.2282004  -0.0285613  -0.5799473  -0.4195892  -0.3079221  -0.3749699
  -0.2361251   0.1279674  -0.2856330   0.3742044  -0.1194401  -0.4290705
  -1.1595795   0.8045908  -0.2430582  -0.2768333  -0.0657808  -0.0519175
   1.4575428  -0.5407944   0.4427976   0.0034204  -0.4028845  -0.0472147
  -0.0359645   0.1695830  -0.1782159  -0.2031285   0.4640726  -0.0572035
   0.6553303  -0.3936979   0.4993721  -0.1291108  -0.1203569  -0.0606018
  -1.8128832   0.3608190  -0.5218053  -0.2327317   0.0031149  -1.0339693
  -0.0552124  -0.2944244   0.0186308  -0.5937416   1.4886073  -0.0849940
   0.0406994   0.0614209   1.8157313   0.2058305  -0.2584629   0.4715558
  -0.8312709  -0.3367916  -0.0249650   0.1440492   0.7625492  -2.2224113
   0.0367202  -0.2832959   0.0615495   0.4356059  -0.2460589  -1.0993017
   0.6870747  -0.3356761   0.9048681  -0.0536693   0.1365251   0.2128259
   1.1892597  -0.2508528   0.3763354   0.3354891   0.5766330   0.3837199
  -0.1325260  -0.0127043  -0.6151111   0.0624746   0.0941196   0.2157284
  -0.0955017   0.7851622   0.9324248  -0.0215206   0.3506578  -0.1066588
  -0.3073377  -0.0338016   0.9268934  -0.2924063  -0.0041124   0.8791681
   0.1805281  -0.0519282  -0.0255275   0.8237589   0.7060946   0.9334722
   0.6379227  -0.5285361  -0.6716562  -0.3541773  -0.1058366  -0.0378241
  -0.1773902  -0.4436624  -0.5567032   0.8531729   0.3316281   0.1258867
  -0.1486702   0.3818425  -0.2072951  -1.3219565   0.4865044   0.8963266
  -0.3762177   0.5499370   0.3759143   0.2335680   0.4299030  -0.2843972
  -0.2636764   2.0298184  -0.8266722  -0.0200672   1.2430034  -0.2219918
   0.0303888   0.2347799   0.0603519   0.3592460  -0.0719985   0.8262862
  -0.3639697   0.3426785  -0.4126221  -0.0826176   0.2046737  -0.0300823
  -1.9321236  -0.5842746  -0.2764436   1.2069266  -0.0954304  -1.0529212
  -0.3756850   0.2215681  -0.5830566   0.0968718  -0.5100293  -0.2509317
   0.8531826   0.6927856   1.4409697   0.3963904   0.3317014   0.0650172
  -1.1277526  -0.9587348   1.0576392   0.8967407   1.5822439   1.1162510
   0.3474697  -0.0846559  -0.1131511   0.2986834  -0.5136678  -0.1369648
  -0.0360226   0.4128453  -0.6920112  -0.0357579   0.3117451  -0.0144041
  -1.3121187   1.4080906   0.9300900  -0.2207348  -0.4156184  -1.0712159
  -0.5369516   0.4041423   0.5256359   0.6305340   0.6054589  -1.1472584
   0.5106653   1.4025420  -0.7908885  -0.2326435  -0.1782152   0.0967753
   0.3198169   0.2305930   0.1539991   1.2091361   0.9409371  -0.1236577
  -0.0637842  -0.0280120   0.0611990   0.7891836   0.0393045  -0.8888563
  -0.5528701   0.8460159   1.1979019   0.2645872  -0.3639514   0.1360379
  -1.0114323  -0.6093304   0.2942719  -0.1400626   0.5381122  -0.0855251
  -0.1293728   0.2718208   0.1165697  -0.4518662  -0.3163197  -0.5933918
   1.5420073  -0.1363801   1.7566445  -0.0067416   0.2495322   0.1558588
   0.2216193   1.3494006   0.8606425   0.8788018  -0.4983068   0.6405001
  -0.0911459   0.2703242   0.0445892   0.1578384  -0.9648066  -0.1878139
  -0.2572975   1.3985723  -2.5071053   0.1495417   0.1662906   0.1385649
   0.5067400  -0.2682515  -0.4012078  -0.4423398   0.3073886   0.4664529
  -0.0246560  -0.2738154   0.1991652  -2.0745872   0.4123816   0.3254034
   2.1194345   0.3733105  -0.3866902  -0.0200603  -0.1146448   0.0081409
   0.9336831   0.0036185   0.9050701  -1.8649319   0.2284357  -0.2246143
  -0.1590877  -0.1863195  -0.0303914  -1.1496872  -0.7415783  -0.5404407
   0.0815831   0.8055195   0.3642064  -0.0258535  -0.2645552   0.0782008
   0.4627912   1.0446002  -1.0643726  -1.0798877   0.4549588  -1.4197927
   0.0567671   0.0235691  -0.1621581   0.3049621  -0.5907131   0.2323477
   0.1221166   1.2463724  -0.9614589   0.0427729  -0.1507774  -0.1879700
  -0.1453070  -0.8284327   1.0552858   0.2868316   0.7946847  -0.0771250
   0.2102641   0.4513572   0.2444656   0.1279635  -0.8353967  -1.3595640
   0.6595545  -0.8862749   0.0639062  -0.0032707   0.2585153   0.3188253
   1.0758522  -0.2553326  -1.1618170  -0.3515680  -0.6615711   0.3499357
   0.0149223   0.2088130  -0.0965481   0.4137232   1.0027173  -0.1945147
   0.9019298   0.6076213  -0.1960862   0.1957099   0.4350749   0.2015600
  -1.1687080  -1.6277495  -0.1623347   0.8202737  -0.0145558  -0.7292973
  -0.0682012  -0.0230903   0.0043013  -1.1531342   0.5422125  -0.1849794
   0.7888826   1.0999024   2.2714621  -0.3548728   0.2499937  -0.1619521
   0.0482857  -0.3759024   0.2468159   1.1620779  -0.1642459   0.9462805
   0.0206813  -0.4459276   0.0200005   0.6499488   0.4575093   0.8452181
  -0.1729491  -0.4321371   0.2525377   0.0896461   0.1341666  -0.1488037
   0.9739816  -0.0060130  -0.5875095   0.7326407  -0.3518198   0.4459312
  -0.0872623  -0.2954567   0.0864390  -0.0197054  -0.8760875  -0.2710279
   1.1904436   0.0643548   0.1448531   0.0650572  -0.0192598   0.0282981
   0.4331338  -3.1425355  -0.8580167  -1.5240696  -1.3672156   0.2631541
  -0.0736195   0.0053294   0.1458693   0.2947410  -0.8885694  -0.0455760
   0.9354108  -1.2148907   0.0566137  -0.1792849  -0.2105558  -0.0172111
   0.1237421  -0.3044650  -0.7991267   1.7913867  -0.5797093   0.0168055
   0.0720328  -0.0019156  -0.1663275  -0.4815127   0.6713055  -0.7331841
  -0.5993193  -1.3863297  -0.0238396  -0.1460377   0.5755134  -0.0410262
   0.2001978  -1.4364823   1.9614653   1.1658143   0.0164873   0.6835833
  -0.2349164   0.1738353   0.1644654   0.0385962   1.0978184   0.0711500
  -0.2082986   0.9231482  -0.2469511   0.2442129  -0.1644552  -0.1689624
  -0.6431741   0.6518159  -0.2926067   0.7345920  -1.2535274  -0.2239361
  -0.1067458  -0.1270436  -0.0910705   0.2808666  -0.2628226  -1.9406435
   0.1379702  -0.5214785   1.3035565  -0.1594943  -0.0329760   0.2257536
  -0.6988718  -0.0048722   1.2044270   1.0424068  -1.1464736  -0.7617167
  -0.0416925   0.2455919   0.1485704   0.7411327  -0.5570965  -1.4277722
  -0.3500238  -1.3131502  -0.0055694   0.0458849  -0.2347093  -0.3454425
   0.4696446  -0.7716010   1.5701361   0.2292835  -1.2266477  -0.4321595
   0.2102436  -0.0258904  -0.1357242   0.4105959  -0.0079746   1.0488075
   0.5127402  -0.7582385   0.6827981  -0.2241048  -0.2894982  -0.1259835
  -0.6265308  -0.9351033  -1.5651870  -0.5172765   0.4854305  -0.8115582
  -0.2035853  -0.0893772   0.0815913   0.1876242   0.8367504  -0.1556497
  -1.0164977  -1.2580594   0.0196351   0.0959440  -0.3411661  -0.1313863
  -0.2944155   0.3761335  -1.3757453  -0.5954120  -0.1996525   0.9579401
   0.0263290   0.0882622  -0.0718253  -0.5783800  -1.5277601   0.2623647
   0.6088944   1.3214756  -1.3500045  -0.1552389  -0.0556463  -0.4081708
   1.4701872   1.5877409  -0.5408089   0.3167029   1.0663201  -0.7405607
   0.0956667  -0.1098629   0.0627734  -0.8210058  -0.3487233   0.4098385
   0.7831395   0.7731381  -0.0267831   0.0580168  -0.4144198  -0.2237904
  -0.5514410   0.7420762  -0.4856719   0.2922637  -0.8164354  -0.2874941
  -0.0895933   0.0953377   0.2990922   1.0823686   0.1943746   0.4799620
   0.9052988  -0.2858440   0.2882518  -0.0609879  -0.3108655  -0.0201233
   1.0908392  -0.8561876   0.3776455  -0.0028753  -0.7432306  -0.4033374
  -0.2691468   0.0381221   0.2688649  -0.5351610   1.7045400  -0.6380580
  -0.4709360   0.3280927  -1.5935434   0.4145095   0.0047287   0.2333259
  -0.2932701  -0.7957159  -0.7270242   0.1449621   0.6591372   1.5640240
   0.0863248   0.1635376  -0.0150854  -0.5085155   1.0577910  -0.7035058
  -0.4855802   0.0557577  -0.6952114   0.0840943  -0.3413043   0.0514802
  -0.0598961   0.4155259  -1.3390839  -1.0409199  -1.3510411   0.4493542
  -0.0269413   0.0431407  -0.1681428  -0.1454862   0.1959550   0.5477371
   0.8843859  -0.9451758   0.9853616   0.0921431  -0.2736011   0.0198999
  -0.6777355   0.0277089  -1.6750508  -1.2978904   0.3597805  -0.4212403
  -0.4117787  -0.3162754  -0.0304051   1.3534097  -0.3866288   0.0195640
  -0.7280367  -0.0455394   0.0657225   0.2760505  -0.2167713   0.1110081
   0.5791634   0.3867442   1.1809111  -1.2617097   1.3122091   1.2602708
   0.0889653  -0.0968249   0.2486702  -0.3158626   0.5496285   0.2302762
  -0.2693119   0.5546667  -0.6257253  -0.0562284   0.1255126   0.0719719
   0.4373057  -1.4831202   0.5498012  -0.2124704   0.2467901   0.1932653
  -0.0316349  -0.0354209  -0.0137054  -0.0488429   0.8800038   0.9739028
  -0.3887013   0.8028540  -0.3391476  -0.0626423  -0.0993099  -0.0425808
   0.4507670   0.5664105   0.1958690   0.0076194   0.5545519   1.6842482
   0.0303289  -0.0809351   0.0059746  -0.0889212  -0.7924022  -0.0084135
  -0.0363034   0.1289028   0.1528495   0.4335647  -0.1743775   0.2905347
   1.6709276  -0.0088859   0.2660117   0.9092266  -1.4152395  -1.2302232
  -0.1001567  -0.0234555   0.2794134  -0.5828059  -1.9471351   0.1308292
  -0.2265085  -1.0422965  -0.3311695   0.0445373  -0.1580879  -0.3636271
  -0.6281671  -0.5799734   0.5325485   0.3840244   0.2970358  -0.8976203
  -0.1083376   0.1058757  -0.2736626   0.9087015   0.3741366  -0.6126988
  -0.0180403   0.6825580  -0.2984230   0.2817764  -0.0017120   0.2135318
   0.9900494   0.2646878   0.5186880  -0.7457099  -0.1449042  -0.0215313
   0.3101267   0.1286753   0.2489809  -0.0758221  -0.9449030  -0.0425548
   0.3805963   0.5658260  -0.0515739  -0.0556380   0.0280459  -0.0707004
  -0.3620803   0.0667279  -0.8892584  -0.4588681   0.2748820   0.1846242
   0.0786317   0.0119806  -0.0182533  -0.6026654   1.4495952  -1.2508946
   1.2278260   0.5116980  -0.5380231   0.1187509  -0.0538496  -0.1225900
   0.3557135   0.8554246   1.6831907   0.3617300  -0.3303156   0.7838523
  -0.0916291  -0.2798811  -0.3696119   0.4138681   0.2527377   0.8599347
   0.7420535  -0.3276650   0.9553116  -0.1110333  -0.1950531  -0.0035995
   0.2391827  -0.2596637   1.4114557  -0.8841957   1.2476616  -0.2661675
   0.1239655   0.5202121   0.0938134   1.2369471   1.7270044   0.4133032
  -0.0745378  -0.1531202  -0.9065704   0.0877744  -0.0263572   0.0863788
   1.2112234  -0.2539866  -2.1240037  -1.3771106   0.9918275   0.2791236
   0.0448140  -0.1203089  -0.1066856  -0.9706586   1.0186787  -1.2531721
  -1.0812377   0.0955990  -0.3813296   0.0469392   0.1400564   0.1243517
   0.2862438  -0.4551485   1.6985944  -0.3771449  -0.4219201   0.1507753
  -0.2458234   0.2526330  -0.2591899  -0.4936317  -0.0701259  -0.5270511
   0.3383230  -0.1786722  -0.9713669   0.1897069  -0.1974012  -0.0675304
   0.1557227  -0.2626786   0.2948849  -0.4905581   0.6485199   0.9797844
  -0.0260978  -0.3957300   0.4805582   0.7165515   1.0386170   0.0211200
  -0.6414390  -0.1731413   0.5110091  -0.3343300   0.0814570  -0.1203359
  -1.8470182  -0.0987797  -1.3188447   1.2973561  -0.4102803   0.8514796
   0.0549239   0.3629441  -0.3678001   1.0438585  -0.3687351   1.5066694
  -0.6052215   1.4538186   1.5378453  -0.1491738  -0.3402438   0.2605972
   1.1392437  -0.3268920  -0.2400916  -1.0054570  -0.7775645  -0.8864229
  -0.1535390   0.2377075  -0.0480040  -0.6638783   0.1881445   0.2064813
   0.9891966  -0.4880656   0.6451840   0.0107079   0.1704700   0.1867798
   1.5375029  -0.2952143   0.4738734  -1.0463312   0.0290838  -0.4873965
  -0.1608568  -0.0653074   0.1017082   0.2261972   0.2234866   0.3080006
  -0.3194458   0.7968561  -0.1211542  -0.2336947   0.3810966   0.1374281
   1.0861685   0.0368565   0.2797864   1.0863388  -0.3481363  -0.1305647
   0.0032278   0.2378399  -0.2738281  -1.6913609  -1.1101695  -1.3573526
  -1.0411076   0.2374764  -0.0957674   0.0539054   0.2678115  -0.0848067
  -0.0939519  -0.3849377   0.1524298   0.3791174  -0.5599489   0.0477957
  -0.1711007  -0.1576924   0.0250669   0.7642362  -0.2753273  -0.4563887
  -1.0296736   0.1076201   0.4475235  -0.1700868  -0.0630920   0.0278397
  -0.3310176  -1.6149692   0.9911566   0.1690185   1.3550106  -0.1671176
   0.1212069  -0.2233650  -0.2979157  -0.4985988   0.3487571   0.7642191
  -1.5130018  -0.1253057   0.0496738   0.5334626  -0.2435502   0.1064817
  -0.5702297  -1.4013828   0.0139598  -0.7835454  -0.0784231  -0.9858001
   0.1186305  -0.1256739   0.0990229   0.1427645   0.2125546  -0.7714815
  -0.1923935  -1.6796904  -1.1930980   0.0112090   0.3054386   0.0260079
  -0.6565710   0.4804277   0.3023809   0.1068547   0.6743066   0.2897518
  -0.0121867   0.1449756   0.1233113  -0.3597367   0.5332876  -0.2008948
  -0.7363115  -0.4101674   0.4975467   0.0132372   0.0904835   0.0684844
  -0.5131407   0.4188870  -1.5458580   0.2802428   0.0038629   0.1797052
   0.2707354  -0.0209324   0.1961196   0.3779908   0.9259117   0.1224252
   0.2267333   0.0135950  -0.0129822   0.0992068   0.0507689   0.5510693
  -0.2671884  -0.7346458  -1.2896944  -0.5822935   0.3846239  -0.9969912
  -0.1126329   0.0009254  -0.2878428   0.1377593   0.8499787   1.7094609
  -0.9112552   1.1544491  -0.3169677  -0.0046918  -0.1823475   0.0960017
   0.2233781   0.0490338   0.3039192  -0.1505384   0.0623065  -0.3579277
   0.0279451  -0.0282587  -0.2146147  -0.5277726   0.7708660  -0.1539554
  -0.6871672   0.5333627   1.2156350   0.2958163  -0.0589635   0.2497216
   0.5580057   0.9397758  -0.6439013  -0.6415443   0.2494954  -0.8551803
   0.1622817   0.1265225  -0.2037234  -1.1258247   0.7145213  -1.6459530
  -0.6100675  -1.0824888  -0.2853500   0.1579352  -0.0733229  -0.2975778
   0.2946277  -0.2281562   0.5701769   0.6767590   0.1111406  -1.0440395
  -0.2438713  -0.0097223  -0.0620624  -0.6492191   0.7774073  -0.1610196
   1.3779098   0.2455990  -0.5380561   0.3785320   0.0495496   0.0439076
  -0.2527091  -0.4861932  -0.2142916   1.6050923  -1.3646011   0.5469487
  -0.1838710  -0.0820709  -0.0047287   0.1950471   0.4338109   0.6504471
  -1.0697718   0.7446152   0.3366262   0.0342895   0.3165634  -0.0013422
  -0.5642563  -0.8243593   0.5493232  -1.0233976  -0.2574199   0.3369321
   0.1295961  -0.3592769   0.2559547  -0.9374006  -0.5431755  -0.0657850
  -0.3414469  -0.4107232   0.7037816  -0.1069312  -0.2212584   0.0567185
   0.4645565   0.4604627  -0.4612378   0.4473688  -0.9791079   0.8593989
  -0.0076087  -0.1009820   0.0746760  -0.8780493   0.3874775  -0.2269277
   0.6574653  -0.8143479   0.4629262  -0.2453476  -0.5105331  -0.1531107
   0.0739542   0.0840310  -0.7965558   0.1006205  -0.1118541  -0.9438835
  -0.0412053  -0.2055609  -0.4654376  -0.0311203   0.9389361  -0.0276363
   0.8478491   0.0530078   1.4164805   0.3582413   0.2154022   0.0809112
  -0.5518236  -0.3971533  -0.3010280  -1.4423530  -0.6576722   0.7277101
   0.0055007  -0.1414308  -0.0509903   0.8200992  -0.6379416   0.7329848
  -0.5600616  -0.2734109  -0.8640054   0.0998942  -0.3088732   0.0213864
  -0.5952408  -1.0628004   0.1966824   0.5711743  -0.4689526  -0.8203157
  -0.0308413   0.0542525  -0.3078171  -0.0372808  -1.2936331   0.0009670
  -0.5764297  -1.2671408  -0.8248540  -0.0971855   0.2301582  -0.1460144
   0.2626092   0.5445898  -0.7234670  -0.3343816  -0.7958146   0.0007731
   0.3183314   0.1809962  -0.2849197  -0.2606510   0.3274637   0.6604259
  -0.5898327  -0.9052486   0.5454983   0.2263665   0.2127261  -0.3346564
   0.7813643   0.4534311   0.1637470  -0.5326139  -0.1416060  -1.1671613
  -0.2028485   0.0567642   0.1595506  -0.8825576  -0.8265170  -0.0958866
   0.5924711  -0.0067836  -0.0512445   0.0578234  -0.2850724  -0.1094731
   0.8183749  -1.2580178  -0.0173069   0.8763433  -0.7885408  -2.0700093
  -0.3145496  -0.2074264  -0.2991782   0.9725810   1.1746788   0.5393799
   0.1439759  -0.7218292  -0.0541234  -0.0053406   0.2870811  -0.0065498
  -0.4648836   1.0681453  -0.3411152   0.3553934  -0.7869514   0.0145774
   0.1713620  -0.2954028  -0.1447036  -1.6527620   0.2307038   0.4600940
  -0.2338000  -0.2689838  -0.1877011  -0.0002029   0.0303687  -0.0519606
  -0.6801719  -1.0883650   0.4271994  -0.2486854  -1.8462946  -1.0294976
   0.0338398   0.3238220   0.2196623  -0.6802583   0.3877798  -1.0660128
   1.4138144  -0.0818380   1.5832464   0.3955006   0.2076433   0.0600549
  -0.7899214  -0.6215354   0.5924554  -0.3291495   0.3681832   0.1926107
  -0.1661735  -0.0508746   0.1582771   0.4529235  -0.4069414   1.6705017
   0.0643757   0.6248631  -1.0857232   0.2385402   0.0595416  -0.1182946
  -1.2304529   0.3460116   1.3822282   0.4360195  -0.0804283   0.2504508
  -0.0427237   0.0544090   0.3293357  -0.3243510  -0.3359318   1.2926617
   0.0782266  -0.5515621   0.5798770  -0.2599312   0.2418269   0.1418141
  -1.0162492   0.0450824   0.5141002   0.2372767   0.1204727   0.4718670
   0.2725764   0.0953507   0.1952052   0.6823637  -1.7669350   0.0579229
   1.3785553   0.3133041   0.2104639   0.2288354   0.0062307   0.1526865
   0.5642945   1.6563800  -0.0251248  -0.2214721   0.9018689  -1.0296529
   0.0964896   0.0069605   0.0557696  -0.8969586  -0.4545600  -0.0490482
  -1.2193281  -0.4625100   1.4038236  -0.0641950   0.1160109  -0.1734035
  -0.1173765   0.1703331   0.5903717   1.1332805   0.2103378  -0.3847849
   0.2359740   0.0207251  -0.3036742   1.4605718  -0.4666059  -1.3047428
   0.5031067  -0.3129717  -0.0815073  -0.1030154  -0.0136739  -0.1023079
   0.5424827   0.8483062  -0.0974019  -0.3246043  -0.9000107  -0.4104762
  -0.2870697  -0.0298333   0.3029382  -0.0315963  -0.3456859  -1.0991192
  -0.1329452  -0.3004545   0.4328016   0.0025746   0.0387229   0.3277218
   0.4931376   0.7164438   0.1407337   0.3226373  -1.3185192  -0.2938319
   0.1402018   0.0621853  -0.1300691   0.1629246   0.5322571   1.0458077
  -0.6885969   0.5490130  -0.2559272   0.1355582  -0.2426047  -0.0332418
   1.1923491  -0.4455208  -0.7683077   1.1345272   0.2324094  -1.9852142
   0.0015245   0.4352267  -0.0427659   0.4523238  -0.7865959   1.1599462
   0.2039487   0.1591689  -0.0881105  -0.2993323  -0.0750370   0.2009905
   1.4802616  -0.3503901   1.6060620   0.2106400  -0.4351532  -0.6717245
  -0.1563193   0.2266759   0.0745444  -0.0975064   0.9461012   0.7751090
  -0.8061590   0.0775882  -0.3305833  -0.2277406  -0.3760678   0.0554995
  -1.0959189   0.9689900   0.5249478  -1.0326427   0.1727159   0.1374438
   0.2596308   0.1925216  -0.0311762  -0.1405007   0.0492958  -0.1572809
  -0.8679667  -1.1342790  -0.3564122  -0.1417024   0.3142260   0.0879035
  -0.4095146   0.5401885   1.0050535  -1.0424899   0.6794532   0.7859878
  -0.0259838  -0.1187615  -0.0874921  -0.5053555  -0.8361995   1.3243553
  -0.9118376   0.9636368   0.4052435  -0.0843051  -0.0521932   0.0586440
  -0.0324819   0.9273652  -0.1358478   0.0252531   0.2739570   0.5767197
   0.0828630  -0.0776992   0.1360020  -0.1470397  -1.1137996  -0.9637062
   0.1024058  -0.3171221   1.5992043  -0.3151109   0.0882645  -0.0553815
  -0.4764175   0.3206195   0.3686099  -0.4420926  -0.7874564  -0.3431490
  -0.0296725   0.0853224   0.0463352  -0.3598626  -1.2443702   0.0414978
  -0.4335657   1.3666931  -0.4884410   0.3805637   0.1393336  -0.1539746
   0.4460319   1.2549370  -0.4277073  -2.2042697  -1.3288852  -0.5640347
  -0.1527712   0.3968121  -0.0865834   0.3167198  -0.0465532   0.3055356
   0.4169317   0.7019704  -0.5560907   0.0924838   0.2710328   0.1075458
  -0.0804671  -0.5003521   1.2491451   0.3410618  -0.8382945   0.6288350
  -0.1263622  -0.0070051   0.2907691  -0.2293104  -0.9664075   0.4640550
  -0.8823159  -0.8367581   0.2076954  -0.1648029   0.4649736  -0.0961779
  -1.3396089  -1.1267865  -1.3942035  -0.8645454   1.3098200  -0.4271461
  -0.1339190  -0.0158055  -0.1951415  -0.1456788   0.3253300  -0.6873876
   1.1802192   0.0680188   1.3042280  -0.1864951   0.0888265   0.1370390
   0.2021101   0.0541225  -0.3615450   0.7274668  -0.5127342  -0.5765721
  -0.4002933  -0.0756680  -0.3130247  -0.9005847  -0.3186518   0.5481874
   1.0519908   0.7975510   0.4594998  -0.1013127   0.3312349  -0.2644359
  -0.4215259   1.2450305   0.7869854  -0.5316478   0.4958027   0.3914704
  -0.0953073   0.0670328  -0.5454618   2.3220189  -0.5208297   0.0588940
  -1.3605045   0.8094832  -0.1373884   0.0098199  -0.1642247   0.5462967
   1.3227867  -0.8068592  -0.4803434   0.4978182   0.9576847   1.3390273
   0.2007573  -0.3984579  -0.3333846  -0.4305291  -0.5229537   0.2589311
   0.8317804  -0.6426655   0.4372376   0.1300050  -0.1126194  -0.2447077
   0.4440644  -0.7180822   1.2899977  -0.4142246   0.1649781  -0.0843881
  -0.0901569  -0.1796094   0.1167768  -0.2528766  -0.3282192   0.4541823
  -0.2464398  -0.2858600   1.3345028  -0.2273393   0.2961448   0.1131687
   0.2740496   0.1167317  -0.5653791  -0.3425724  -0.2256119   0.2738605
  -0.1841461   0.1351742  -0.2001464   0.5036745  -0.3405422   0.7011352
  -0.7013533  -0.1020257  -0.4565828  -0.0355523  -0.4249532   0.2184270
  -0.0327893   1.0031498   2.1749228  -0.8148138   0.2405522  -0.1841679
  -0.0223875   0.0543828  -0.1108451  -0.2087937   0.7323195   0.8714869
   0.4619048  -0.6474509   0.8113633   0.1535694  -0.1676630   0.0331609
  -0.7727013  -0.9808143  -0.0782730  -1.4184977   0.4434587   0.8062847
   0.2069714   0.0899091  -0.1117482  -1.2266066  -1.2845548  -0.0126137
   0.9264582  -0.0601674   1.3365582  -0.3681402   0.1437594   0.1304754
  -0.4865248   0.6140664  -0.6233397   0.9168189  -1.6301255  -0.7870691
  -0.1581225  -0.0712567  -0.2986854   0.2622242  -0.6160277  -0.4914915
   0.8654257   0.0726851   0.8282292  -0.1457778   0.1976206  -0.0378775
   0.5013492  -0.5684954   0.1530973   0.4770022   0.4348921  -0.3240834
   0.1298183   0.3469405   0.2352360   1.4782502   0.2018183  -0.0936084
   1.4859983  -0.2355389   0.8582749  -0.1916976   0.2196876  -0.0115423
  -0.4884803  -0.1018497   0.1258799  -0.6582283  -0.2675133   0.1235794
  -0.2399273   0.2827476  -0.0191429   0.2790437   0.4782559   0.6938402
   0.6549899   0.3128822   1.7449511   0.0101483  -0.3842952   0.4667970
  -1.1019331   0.1729113  -0.5530029  -0.7515023   0.8129539  -1.0272967
   0.1628736   0.1376499   0.2108655  -0.4302447  -1.1641210   0.2761050
  -0.4933176  -0.4575383  -0.9540380  -0.2412459  -0.1643556   0.1371005
   0.3702979   0.2596377  -0.5818611  -1.6153158   0.2637829  -1.7268358
   0.0864273   0.3371427  -0.0462836  -1.3325377  -1.0730059   0.2489406
   1.6281311  -0.1841566   0.2598120  -0.2016297  -0.2217653   0.1926864
  -1.0604535   0.2633530  -0.4448534   1.3897009   0.8668606  -0.2744566
   0.0287043  -0.0086712  -0.1839209  -0.3511179   1.5605340   0.5734373
  -1.2494624  -0.3229205  -1.1772509  -0.1508656   0.1849305  -0.2363170
  -0.9024501   0.4916258  -0.4671169  -0.5383283  -1.4574811  -0.3380744
   0.0766447  -0.1862816  -0.1864414   0.1062717  -0.7776948   0.0400852
   0.8458212   1.2431574  -0.0038031  -0.0630444  -0.0285247   0.1552100
  -0.1120519   0.4615110   0.3130630  -0.0254907  -0.4649924  -0.1042253
   0.2242311   0.1518898   0.2644125  -0.1140123   0.6492149   0.6303964
   0.0421164   0.0495640  -0.0135046  -0.1041839  -0.0507862   0.1625667
  -0.3117541   1.5520068  -0.6895416  -0.0044845   0.1466455   0.2744698
  -0.1591823  -0.1554793  -0.1811369   0.3943256   1.6537652   0.3489064
  -1.2573139  -1.0562772   0.3706551   0.1176751   0.3111984   0.0166728
  -0.0681318  -1.6956272   0.0161119  -1.0963572   1.5006928   1.2995977
  -0.1317864  -0.0108931   0.1051676  -0.2438143  -0.2999073   0.1514111
   0.2688979   0.6095152  -0.4103486   0.1825544   0.0710331  -0.1864971
   0.5094366  -0.2239035   1.4984610   0.6673888  -0.5618594   1.1166241
   0.1773279  -0.1554736   0.0787468  -0.7994245   0.9304125   0.1324665
   0.6767096   0.6023979  -0.0083344   0.2341920   0.3419037  -0.0108681
  -0.2861202  -1.3746948   0.3207384  -1.2321277   1.8511970  -0.4466342
   0.0415306  -0.4652761   0.3125493  -0.5438041  -0.4412806   0.3970684
   1.1722183  -1.0738659   0.7492506   0.3069963   0.0597499   0.0012722
  -0.2754104   0.2580738  -0.8042494  -0.0007127  -0.4899004  -0.5955885
   0.0519409   0.0333207   0.0192384  -0.8351329   0.3113762  -1.2438134
  -0.0593187   0.2939409  -1.0944834  -0.1617009  -0.0244854  -0.1641338
  -0.0172142  -0.1058275   0.4416326  -0.2202834   0.5532264   0.5583805
  -0.2040083  -0.0438864  -0.1457520   0.8776739   1.8368668   1.4811322
  -0.2230802  -0.3319627  -0.2541376  -0.1319307   0.3673602   0.2786447
   0.5550902   0.6205367   0.1268346   0.0662546   0.0424372  -0.3862930
   0.0518871  -0.3033369  -0.2425341   0.1795620  -0.0757680   0.8524313
   0.5841249   0.1246821  -0.9902107  -0.2647604  -0.1227119  -0.0188338
  -0.2568602   0.3890557   0.5164791   0.4581524  -0.0050104  -0.0765496
  -0.2105542   0.1428042  -0.1317651   0.7787675   0.6623799   0.5559184
   1.6605165   0.9713055   0.7226373   0.1269799  -0.5205628   0.2726839
  -0.4149347  -0.4461256   1.1559233  -0.8292142  -1.0007268   1.3377708
  -0.2052555   0.0195718   0.0061703   0.3501001   0.4645502  -0.8393126
  -1.0327418   0.1415645  -1.0962495   0.0194659   0.1339894   0.0778654
  -0.8509806  -0.4154324  -0.1663494   1.1110409   0.0710461  -0.3643308
  -0.2429133   0.0137031   0.3339464  -1.7861975   1.2329238  -0.7045807
   0.2453980  -1.0577139  -0.0261693   0.0524945  -0.0206629   0.1515120
   0.3546855  -0.7087828   1.2989139  -0.6941013   0.3597727   0.2787444
   0.0094142   0.4381323  -0.0692679   0.8188301  -0.4918020   0.7496714
   0.5865902  -1.1216825   0.5867004  -0.3958319   0.0364834   0.1705475
  -0.7275781   0.6864461  -0.4129511   0.4497761   0.4740136  -0.1140814
   0.0674806   0.0910087   0.1722824  -1.0277188   0.4971400  -0.4155278
   0.6753811  -0.8447293   0.0189473   0.2315480  -0.5131943  -0.0498760
  -1.7328867   0.1622776  -0.4372869   0.1656849   1.1347829   0.7947587
   0.2627021  -0.0385045   0.1692619   1.0693584   0.6044183   0.8017237
   0.0370988  -0.0682518  -0.5580686  -0.0736710  -0.2755813  -0.1425691
  -1.2145023   1.2805448  -0.4900370   0.5070406   0.5434147  -0.2960029
  -0.1204432   0.4082020  -0.1007772   0.8127707   0.4112891   0.5957916
   1.4125497   0.3187141  -0.1569474   0.0378770   0.0140871   0.3747635
   0.3626733   0.3358260   1.4712861  -0.3693734   1.4927861  -0.9477941
  -0.1150028   0.1677146   0.2023171  -0.1466507  -0.6404211  -0.5212028
  -0.5590185   1.2905036  -0.6480404  -0.1849715   0.0492904   0.1155414
   0.4243361  -0.0401335   1.1536507  -0.4992827   0.3018691   0.9323017
  -0.3019710   0.1817188  -0.0018816  -0.3016349  -0.3265904  -0.1671020
  -0.7989491  -0.7564882  -0.0600883   0.2993563   0.0281578   0.0867405
   0.1860886   0.1882894   0.3844813   0.2846188  -1.0637248  -0.9149942
   0.0568166  -0.1710640   0.1426936   0.6895498   0.0945679  -1.3687107
   0.8849249   0.0859275  -1.3034769   0.1847605  -0.1735994   0.0255799
   0.8433635   0.4810079   0.4249330  -0.7973655   0.1546328  -0.0542142
  -0.1730146  -0.1120065  -0.1351751  -0.2731931  -0.5562742   1.0119526
   0.8707560   0.2316497  -0.0895103  -0.0210858  -0.1159972   0.1452091
  -0.5621381   0.5987148  -0.9654133  -0.5643310  -0.1405992  -0.7284743
  -0.0222745   0.0865357  -0.1746734  -0.4984508   1.6234176   0.3402111
  -0.0688529  -0.2946202   0.0047894   0.1967242   0.0073817   0.3040487
  -0.2653280  -0.0179105   0.3052747   0.1491462  -0.5709419  -0.9939552
  -0.2521405  -0.0138247  -0.4084377  -0.6627553   0.2539039  -0.7432130
   1.2935995   0.0997417   0.1330431  -0.0654431  -0.0445959  -0.1663018
  -0.6205511  -1.2170932  -1.0642722   0.5640548   0.1501369  -0.6393036
  -0.0251908  -0.0933599  -0.0567549  -0.2841284  -0.3088183   0.6400368
  -0.4320259   1.7310223   0.7491641   0.2737309   0.1607243   0.0358124
  -0.0659644  -0.3683690   0.8794044   0.9137843   0.4174948  -0.7372827
   0.2366493   0.0648914   0.1386782  -0.4524603  -0.4718153   0.7874989
   0.2902920   0.1657998  -1.3353612   0.1033032   0.0936874  -0.0178937
  -1.1503359  -0.3283251  -0.8356840   0.2886868  -0.2951274   0.8681865
   0.4563849  -0.0797434  -0.3038728   0.2614171   0.1208726  -1.2582942
   0.0820593  -1.4190728   0.1762977   0.2119283   0.0856520  -0.2761024
   1.2559150  -0.4697963   0.8582972   0.9454905  -0.5929018   0.4376927
  -0.1503767   0.1373146   0.0169836   0.4351211   1.2869684  -0.4610543
  -0.5105020   0.6992703   1.0493056  -0.0877475  -0.1743071  -0.2553869
   0.3602295  -0.6231436   0.5277956   0.6307335   1.2981310   1.4787549
  -0.0903084   0.1360878   0.0171364   1.3958012  -0.4017523   0.4324001
   0.5409189   1.3379388   0.4678157  -0.0439135  -0.1643199   0.1243701
   0.1775333   0.0880752  -2.2263693   1.6241420   0.1679748  -0.0778270
   0.2191128   0.4431885   0.0857942   0.4762507  -0.5043827  -0.2155550
   0.6977552   0.1929389   0.5432077   0.1738487   0.0880732   0.0025432
  -0.8365428   1.5198502  -0.2869983   0.2041584   1.3021120  -0.8854738
  -0.0472572   0.1993007  -0.5311481  -0.5532391   0.1666889   0.4220344
  -0.8559663   0.2133405   0.7385690  -0.0177873  -0.0046503  -0.1142191
   0.7532400   1.1238343  -0.1269840   1.2474103  -1.5181753  -0.8763558
   0.3255494   0.0707881   0.0563590   0.2543268  -0.3956388   0.1352722
  -1.1739297   1.2979884   0.1121851  -0.0077961  -0.0108347   0.0781069
   0.6606809  -0.3626730  -0.1481393   1.1615148   0.3205468   0.3084404
   0.1755274   0.0809123  -0.2929354  -0.3287854   0.7435214  -0.3843152
   0.6598952  -0.1497283   1.1462672   0.1938777   0.1625955   0.1521732
  -1.1992553  -0.5154379   0.4065027   0.2080052   0.5565607  -1.4238802
   0.0387894   0.1280802  -0.0710717   0.1946531   0.2694777  -0.9642703
  -0.6116983   0.6995364  -0.8894648  -0.1138618  -0.3570607   0.1384236
   0.0385066   0.9902511  -0.4868627  -0.3631872   1.1633526  -0.6505797
  -0.3034404  -0.2954400   0.2113638   1.0295291   0.8873793   0.6114074
   0.1645667   0.0247396   1.1686878   0.2387477   0.1128831   0.3112832
   0.5641550   0.3184246   1.1225589  -0.2632786   1.0178850  -0.6800114
   0.1113884   0.0910659  -0.5266200  -0.3138604   0.3082074   0.7452906
   0.4103553  -0.7218179  -0.1568215   0.4801275   0.3213574   0.0549001
  -0.3370282  -0.1348533   0.2126496   0.2003685  -1.7724654  -1.0494221
  -0.0714542  -0.0040928   0.0667909  -1.6831910  -0.1583030  -0.1904322
  -0.5355706  -1.8460880   1.0693046  -0.1018159  -0.2164772  -0.3587195
   1.1281063   1.7879555  -0.1987396  -0.3732875   0.8125596   0.9971200
  -0.1919734   0.1297119   0.0227861  -0.2844671  -1.3128723   0.3120944
   0.9420926  -0.6982932  -0.4927903   0.1495330  -0.3782070  -0.2436457
  -0.3597901   0.8133448   0.2099813   0.4405569  -0.3096110  -0.6626388
  -0.0417504   0.1911643   0.1097515   0.6139507   0.7801777   0.6138803
   0.5605868  -0.4830765  -2.1925980  -0.2460656  -0.1542037   0.0372251
  -0.7484718  -1.2109244   0.1314520  -0.4951150  -0.0365140   0.1620538
  -0.1204935  -0.3931354  -0.0068279   1.2208314  -0.8312821   0.3810041
   0.5010989  -0.0920874   0.5688137  -0.1004694  -0.3408796  -0.2091839
  -0.8269366   1.2680847   0.5446688  -0.6228348   1.3351574  -0.9433887
   0.2457394   0.2715815   0.2590394   1.4808272   0.4975867  -0.4822823
   1.7473678  -0.7462230  -0.3611507   0.0946113   0.1920285  -0.1196931
   1.4623623  -0.2034014   0.3068796  -0.0397380  -0.1780799  -0.2189585
   0.1176264   0.2367864  -0.0525834  -0.9328822   0.2004307   0.0777303
  -0.4232315   1.4311092   1.0803358  -0.0481894   0.1076229  -0.2892845
  -0.6795818   0.0276577   0.2354494   0.2842611  -1.2907535   0.3735133
  -0.0632704  -0.3400023  -0.0775723  -1.2128751  -0.9897770   0.5219723
  -0.2538784   0.2000379   0.1031778  -0.2999256  -0.0238921  -0.1819341
  -0.7393058   0.5258708  -0.3183284  -0.5972020  -0.7324916  -0.3449713
  -0.0044471   0.1700888  -0.3566595   0.1640820  -0.4924093  -0.1350773
   0.4808877   0.2412642   0.0216895   0.2279564   0.2467198  -0.3484705
   1.0416008   0.5381564  -2.1321747   0.2719885  -0.6671723   1.2249048
  -0.3961321   0.1376935  -0.1486902  -0.2602643   0.5572785   0.5942036
   0.6519312  -0.4076983  -0.2500547   0.1866328   0.0908702   0.0945603
  -0.5198392  -0.4683316  -0.0239723  -0.8326111   0.8677356   0.1833453
   0.3822256   0.1072358  -0.0542021  -0.4640685  -2.5152511  -1.2118610
   0.7048074   0.6443839  -0.4348955   0.1139796   0.0355158  -0.1872017
   1.1502038   1.2809714  -0.6679035   0.7990729  -1.0145312  -0.9927526
  -0.0796275  -0.2286206  -0.0313818   0.0161009  -0.0291786   1.4624723
   0.6438946  -0.3381778  -0.9419599  -0.2219703  -0.0727082   0.1286069
   0.6663824  -0.3921194   0.6298077   0.8365846  -1.2238996   0.2029466
   0.0375057   0.1113373  -0.3290811   0.2575226   0.8611210   1.7379677
   0.6656671   0.8840384   0.4599955  -0.0571509   0.2282684  -0.0450256
   0.8314568   0.1301657   0.1821795  -0.7224106  -0.0731049  -0.4565257
  -0.2581581   0.0069116   0.0161251  -0.0026372  -0.9370807  -0.0796667
   0.5153807  -1.3644941   0.5771581   0.2831652   0.1723597  -0.3187205
   0.6979840  -1.3977229   0.1591686   0.8608044   0.5214660  -0.0697502
  -0.1577861  -0.3054207   0.2595703  -1.4376024  -0.4530197  -0.7665492
  -1.1669259  -0.3516178  -0.7572700   0.2835785   0.0411141   0.0911175
   0.2269401  -1.0707638   0.5252383   0.1484297   0.2363959   1.1346003
   0.2074837   0.1074460  -0.2765305  -1.0712005  -0.4318941  -0.5350816
  -0.3754760  -0.6044454   0.1217991   0.2501771   0.0769851   0.0020957
   0.9613859  -0.4042407   0.3995913  -0.2612357  -1.3349439  -1.2777501
   0.0867026  -0.2521507   0.0530584   1.2235113  -0.7866974  -0.1266361
   0.4504820  -1.2779945   0.7168942   0.1724047  -0.1657414  -0.3197740
   0.2564208  -0.4677636   0.2101500   0.9288532  -1.5627292   0.4879635
  -0.2078055  -0.0338276   0.0591723   0.3066400  -0.5317623  -0.1063087
  -0.1499260   0.5380041   0.2839091   0.0383334   0.0905109  -0.1859653
  -0.9215778   0.6552396  -0.4125975   0.3287952   0.4827313   0.6473714
   0.1022809   0.1238608   0.0965350   0.0775662   0.0303564  -0.4472312
  -1.0084619  -0.3034122   0.1275891  -0.4156869  -0.0436490   0.0348315
  -1.5681097  -1.3034146  -0.2710145   0.0704825   0.9941288  -0.6640275
  -0.0807122  -0.1555171  -0.1224788  -0.5194201  -0.2301297   0.6768764
   0.0107941  -0.5848768   0.5868868   0.1416001   0.1202633  -0.0774087
  -0.9063922   0.5971572   0.1940235  -2.1961623   0.6167364   2.1684029
   0.1027368  -0.1018792  -0.0028536   0.9581527  -0.7119027   0.1489405
   0.8392929  -0.6390518  -0.4664324  -0.1700583  -0.0546146  -0.0083830
   0.0879155  -0.0169448   1.1274228   1.1961060   0.0574827  -0.3853834
  -0.1552119  -0.1039696   0.0502932  -1.0500895   0.1545071  -0.4971434
   0.5993085  -1.0353212   0.2195419   0.2437426  -0.3625888   0.0443134
   0.2621077  -0.6201830   0.7263386  -0.7627767  -0.7776010  -0.3937887
   0.0295897   0.0481961   0.0471670   1.6073895   0.8612629   1.1133682
  -0.9204272  -0.7675093   0.2087928  -0.0864855   0.0010340   0.1571892
  -1.7637376   0.5124306   0.7120612   0.5268859  -0.5979272   1.5650329
   0.3003295   0.0192239  -0.1923353   0.7395574   0.3325238   0.3190336
  -0.1101032   0.7519196  -1.3094574   0.2443702   0.1183710   0.1276135
   0.8177570   0.8786919  -0.2765702  -0.0570916   0.6184850  -0.9629456
  -0.3065291   0.2535356  -0.1759575   0.4275662  -0.1568818   0.7332355
  -0.7090752  -0.4765269   0.5740639   0.2653540   0.0860047  -0.1733689
  -0.0373970  -0.7044266   0.4467785  -0.9194651   1.2940695   1.2569453
   0.0031698   0.2381454  -0.0302155   0.2373515  -1.0411731   0.9747677
   0.0036079   0.2367931   0.2476271   0.0580849   0.0798402   0.2562265
  -0.2491745  -1.5333641   1.4189984  -0.3840957  -1.1030101   0.7834765
  -0.0718662   0.0352904  -0.0853697   0.9385354  -1.0969145   0.7119255
  -1.5550264  -0.4257616  -1.7888524   0.1165842   0.3507876  -0.2725442
   0.4376829  -0.3966313  -0.1325659   1.1755509  -0.1322666   0.1219313
  -0.2096430   0.3662668   0.2232676   0.4349426  -0.2345650  -0.5762121
   0.7639651   2.6307124  -0.6332227  -0.1100121  -0.0797820  -0.2129116
  -1.5358582   0.1685715   2.3086037   0.3184893   0.1430313  -0.5221049
  -0.1282978  -0.1053203  -0.1300954  -0.7079542   0.1757291  -0.0981289
  -0.1895087  -0.8688621   0.7497451  -0.1108368  -0.0274784  -0.2390720
   0.2113845   0.3230511   0.9981604  -0.5455633   0.2003793  -0.1971183
   0.1236934  -0.2318225  -0.1456690   0.6664981   0.8186161   1.5677789
  -0.8927145   1.0760183   0.4015242   0.2043823  -0.0308040   0.0782508
   0.7769864   0.8037560  -0.7756106  -0.0025564   0.5829054  -0.2423239
   0.1157029  -0.3429374  -0.0567693   0.3700770  -0.4546854  -0.1675969
  -0.3409506  -0.2999733  -0.0818667   0.0036669   0.0125257  -0.3044331
  -0.5108756  -1.9137151   0.0590390  -0.7462125   0.1052401   0.6260186
  -0.0560610   0.1857030  -0.1665230   1.0898351   1.0454571   0.5002143
   0.2532633  -0.1856490  -0.2751536  -0.0460900   0.0546320   0.1470789
   0.3083524  -1.1426675  -0.3499303   0.7029780  -0.2772994  -0.1504530
   0.0746262  -0.1264568  -0.2323761  -0.3124935  -0.2656136  -0.3629894
   0.4342642   0.8365970  -0.6114235  -0.1265310  -0.4252936  -0.0138521
  -0.1120096  -1.8182313   0.4243172  -0.0255465   0.8729628   0.7286221
   0.3488012   0.0702287   0.0486506   0.5439206  -0.0430403   0.2185814
  -0.6774504  -0.6218372   0.2440035   0.0322261  -0.2794345   0.0955276
  -0.4399998  -0.5923449  -0.0329425  -0.4100680  -0.0624465   0.9329203
   0.1000436  -0.0499118   0.1159752  -0.7630084   0.4373172   0.1176172
  -0.2884853   0.4279312   0.5907710  -0.2396983  -0.4567365   0.1976120
  -0.3971268  -0.3716581   0.0478330   0.9745609   0.0613119   0.2594759
   0.3977513  -0.2823062  -0.1202019  -0.0142037  -0.0423912   0.5659165
  -2.0233298  -0.3630026   0.9896848  -0.1873068  -0.4757989  -0.0845610
  -0.6872504   0.2339828   0.6656929  -1.0498877   0.9811822   0.4066070
  -0.2203550   0.0080475  -0.1649523   0.6359896   0.6940967   1.5639790
   0.5434942   1.9807636   0.6389029   0.0954364   0.0735918   0.3560178
  -1.3456023  -0.9351658   0.0094483   0.0091327  -0.7308011   0.5686725
   0.1865993  -0.0176625  -0.0780707  -0.2825489  -1.0904144   0.6847141
  -0.2201245   0.0648546   1.7768145  -0.1461141  -0.0751423   0.3527794
   0.5265467  -0.0459231  -1.1847258  -0.2397988  -1.0329192  -0.6978144
  -0.0185265   0.1597425   0.1348162   0.6637653   2.4030913   0.9882544
  -0.3148545   0.8274488  -0.7406869  -0.3095130  -0.0875656  -0.0971235
   0.7145477   0.4245847   0.1347531  -0.5935599  -0.4162263  -0.5505768
   0.1431764   0.1369353  -0.0815179  -0.8836020   0.2346317   0.0735656
  -0.3550730   0.0105398  -0.2434607  -0.0150732  -0.0968879   0.0560291
  -0.3649295  -0.3500611  -0.4490553   0.2665260  -0.0129448   0.9439655
   0.0756676  -0.0840350   0.1760202   0.2864007  -0.1970838  -0.0553382
  -1.4013829  -0.0041078   0.7800472   0.0733519   0.0096074   0.0905893
  -0.4338690   0.0852940  -0.3593407   0.3625391   0.7127012  -1.3832080
   0.0422720   0.1287038  -0.0018750   1.2688640  -0.3531922   0.5633823
  -1.2016412  -0.6079804  -0.8866805  -0.0787449  -0.2031070  -0.1112246
  -0.8157013  -0.2718532  -0.9055419  -0.5609578  -0.3709067   0.2751070
   0.1678431  -0.3171810  -0.4325068   0.6861328   0.8363276  -0.0694202
  -0.7583525   0.5488880   1.0299372   0.1713467  -0.0879707   0.2301308
   1.5665564  -0.3125904  -1.2392332   0.0354312  -0.4592328   0.0723951
  -0.1035733  -0.0832005  -0.1272614  -0.5570512   0.1082054   0.2780592
   0.6733670  -1.2516046  -0.0265500   0.2415883   0.2533026   0.0769994
   0.0595781   1.0795606   1.1430042  -0.0607742   0.7332023   0.3562770
   0.1502352   0.2221631   0.1998393  -0.6951247   0.9283413  -0.1992862
  -0.1288287  -1.2082305  -0.0569056   0.0087651  -0.0064850  -0.0975126
   0.4332078  -0.7150884  -0.3338914   0.4553431  -0.0612822   0.4275348
  -0.1956941  -0.1184665   0.0959409   0.9093304  -0.0313586  -0.1808622
  -0.4997059  -0.9990586  -1.0776084  -0.0558326  -0.1778250  -0.1704898
   0.9211014  -0.8359264  -0.2558379  -0.4040034   0.6205596  -0.0627533
   0.2013766   0.2255148   0.1080396   0.5187568   0.8532265   0.7953235
  -1.6858986   0.2431500   0.5025178   0.0263290   0.1848953  -0.0790087
   0.1109886  -0.6439640  -1.6654905  -0.7346792  -0.0973666  -0.3508468
   0.1845429   0.0658151  -0.1351639  -1.0936303  -1.2522532  -0.7395143
   0.1743643  -0.0000066   0.6685011   0.1818111   0.0002638  -0.0375656
   0.6112017  -0.5799352   0.2140572  -0.2061590   0.2251317  -0.1217770
  -0.3119276  -0.3152029  -0.2136150  -0.6401112  -0.3090893  -0.3627957
  -0.2313348   0.2332006  -0.6958610   0.0462294   0.0489959   0.0539620
  -0.2211136  -0.8926832  -0.3873437   0.3180335  -0.5693680  -0.3549816
   0.1531234   0.1986898   0.0014152  -0.5688787   0.4288562  -0.0881098
  -0.1228962   0.0882672  -0.2741387  -0.0340736   0.3577177   0.0990265
  -0.8075665   0.0428759   0.3852314  -0.0532881  -0.0182376  -1.4092818
   0.0420383   0.1022809  -0.0485447  -0.3349775   0.5518875   0.1224940
   0.1555460  -0.1170837   1.1189917   0.2637436  -0.1133740   0.1066070
   0.8130372   0.6430352  -0.2716380   0.2136517   0.7644478  -0.2621051
  -0.3093417   0.4649809  -0.2861776   1.5489375   0.1803786  -0.5009449
   0.8287362  -0.9791564  -1.3455438   0.1364301  -0.0934250   0.0699975
   0.2255370   0.7738198   0.5014150   0.3292867   0.8241408  -0.1715262
  -0.0491787  -0.0334767  -0.0446430   0.4353488   0.6434071  -0.8013717
   0.0200380  -0.9478327   0.3546006  -0.1858750   0.0604269  -0.1632781
  -1.1014406   0.0148345   0.6443396  -0.3964737   1.0764406   0.3048343
   0.1175157  -0.0387738  -0.2466187  -0.7377093   2.1881623  -0.0785918
   1.1085688   0.6245138  -0.5235029  -0.0137881  -0.0050615   0.5263877
  -0.2455886   1.1736800   0.3644963   0.1007382  -0.8380906  -0.2582865
   0.2903803   0.1718347  -0.0400526   0.7544879   0.0119763  -0.7984877
  -0.2201205   0.5910316   0.2396273  -0.0660670  -0.3287851   0.1356531
  -0.1519621   0.7194966  -0.4681924  -0.8777867   0.1059826  -0.3624996
   0.1597104   0.1405617   0.0999658   0.9464795  -0.3858185  -0.0935532
   0.2444765   1.1545697   0.1624892  -0.0226524  -0.1653280  -0.1724248
   0.2724961   0.6929389   1.1520291   0.1968355  -1.4322312  -0.0793693
   0.0293550  -0.3410794   0.0736787  -0.9748302   0.0850389  -0.8515998
  -0.0731615  -0.6577491   0.0604658   0.0274073   0.0220560  -0.0385318
   0.7787229   0.0375489   0.0606630   0.3052721  -0.5511298   0.5505246
  -0.1987447  -0.0654665  -0.1159962   0.7214394  -0.5314960  -0.5794355
  -0.2656695  -0.4282181  -0.2489443   0.5168609   0.2484892   0.3883616
  -1.7813609  -0.9475651   0.6969638   0.1665057  -0.5597801   0.3242371
   0.1210039   0.2191037  -0.1078497   0.3707047  -0.0463042  -0.1267747
   0.5031234   0.6890520  -0.0402796  -0.0160413  -0.0163253   0.0419792
  -0.4383556   0.2319604  -1.3748392  -0.2378067  -0.1363037  -0.6702305
  -0.2953019   0.0950448   0.0583829   0.2260145  -0.3404865  -0.1903264
  -0.5263071   0.4156421   0.7467689   0.5392498   0.0465564  -0.0302139
  -0.7342379   0.3715386   0.9135584   0.6469382  -0.2840303  -0.6525525
  -0.2141975  -0.1705740  -0.1101437  -0.5116852  -0.5245615  -1.1301973
  -0.5295976  -0.1686348   0.2470944  -0.0043808  -0.4057638   0.2594295
  -0.9748937   0.3437809   0.0602317  -0.2682110  -0.1713789   0.0508025
  -0.3150260  -0.3564183  -0.2883760   0.6580633   1.5145957  -0.7504725
   0.3855312   0.1996622  -1.0994610  -0.1108669   0.3540154   0.0943161
  -0.1444466   0.5076242   0.6764283   1.3159471   0.6894145  -1.2897590
  -0.1881466   0.1388053  -0.0682107   0.2081392  -0.1590004   1.1820101
   0.0965186  -0.8841148  -1.0055947  -0.0318922  -0.0173973   0.1022079
   1.9379562   0.0413661  -0.8853027   1.1418508  -0.7428359   0.9262710
  -0.2202513  -0.0592854  -0.3879524   0.6757883   0.2970415   0.6948811
  -0.3759219  -0.1120615  -0.1119930   0.1249173  -0.1042635   0.1645685
   0.4386353   0.4848298   0.3562044  -0.4169194   0.2391699  -0.0315874
  -0.1462749   0.0952093  -0.1973002  -0.3428141  -0.0462587   0.1999348
   1.1082070  -0.2823914  -0.2007306   0.1676673   0.2836529   0.1989516
  -0.6038852   0.8901595   0.5722726   0.0678046  -1.2491832   0.2573597
   0.0299184  -0.1221246  -0.1328112  -0.9073189  -0.2676128   0.7038764
  -1.4602372  -0.3965576  -0.2056520  -0.2463373   0.0333243  -0.1368767
  -1.4842383  -0.0362975  -0.1160135   0.6736492   0.2659562  -1.5123946
  -0.0978229   0.2833888   0.2692048  -0.3749560  -1.7189833  -1.3692697
   0.5531987  -1.1974155   0.3007286   0.3142601  -0.1891646  -0.1252390
  -0.5593183  -0.6902508   0.3566485   0.0523494  -0.3762764   0.5684462
  -0.3254222   0.0495184   0.0568290  -0.9060571  -1.1122400   1.1061036
  -1.1975998  -0.1252937   1.4646595  -0.2139521   0.0975583   0.2793943
   0.2749920  -0.4152942   0.2975892  -0.5261731  -0.2519272  -0.5984947
   0.2067596   0.5736927   0.0363595   0.4052626   0.0000188   0.6262812
   0.2228674   0.3000909   0.1033367   0.1537829  -0.3818785   0.1185917
   1.3628662   0.0318791   0.9511686   0.5477295  -0.1691925   1.0844412
   0.0253860   0.0539478  -0.3061608  -0.6232662   1.2270673  -0.1912802
  -0.2080354  -0.3601614  -1.1914287   0.2350551  -0.0285519  -0.1507018
  -1.6702249   0.4354482   0.7728303   0.3672322  -0.5395380  -0.7473560
   0.5430092   0.1925996   0.0903187  -0.4042707   0.0122511  -0.5806899
   0.2897945  -0.6783968  -0.0022914  -0.2847851   0.1730511   0.3671462
  -0.4317868  -0.4471776   0.1664558   0.2315182   0.0835072   0.5256054
   0.1590872  -0.1654664  -0.0801864   0.4484121  -0.5847870  -0.2687551
  -0.4154407  -0.6222302  -0.6336268   0.1930363  -0.3611944  -0.0203757
   0.3207469  -0.0418946  -1.7123280  -1.4644884   0.1041933   0.4329310
  -0.1150594   0.0762503   0.1308867  -0.1917764  -0.2411781   0.4980175
  -0.6222249  -0.6118895  -0.1232715  -0.1452560  -0.0108328   0.2582528
  -0.3285290  -0.3570334   0.0600746  -0.5630525   0.8155650  -0.0750779
  -0.2536102  -0.0816081  -0.0063297  -0.2323864  -0.0924381  -0.5920107
  -0.9917892  -0.5554900  -0.2070575   0.0958351  -0.3153855   0.0019465
   0.1930423  -0.5569006   0.4458602   0.1672789   0.2938218  -0.3944542
   0.1048405   0.2041030   0.1069851   1.2225458   0.1393464  -1.1448509
   0.9653378   0.8815426   0.0949923   0.1281021  -0.2005373  -0.1858908
   0.2236035   0.5098875  -1.1175664  -1.2304975   0.3320185   0.6510704
   0.0032304  -0.1003861   0.2436566  -1.8618363   1.8858944  -0.0025257
  -0.3927490   0.4363283   0.4325425  -0.3374113  -0.3668154  -0.1738559
   0.5077950  -0.5029185  -0.6242754  -0.1058531   0.5289476   0.2160169
   0.2586343   0.0366823   0.3734192  -0.5059916  -0.3025595   2.2026338
  -0.3894224   0.0433949  -1.0538086  -0.1834272  -0.2603791  -0.0750139
   0.5080699  -0.5270073   0.4989994   1.2206036   1.8580259   0.0143890
  -0.1247305   0.0892650  -0.0294549  -1.3496340   0.6153837  -1.9448451
   0.2934136   1.4329941  -0.0290386   0.2053508  -0.1065909  -0.1620064
   0.0087093  -0.6676752  -0.1750217  -0.3654404   0.3017077  -0.3597788
   0.0240213  -0.0870262  -0.1281814   1.1766583  -0.1289647   0.5853133
   0.0154794  -1.2029227   0.5781969  -0.1647400  -0.1648462   0.4544560
   0.6962444  -0.0815914   0.6672582  -0.2492609  -0.5947944  -1.6665173
  -0.2038713  -0.2037669  -0.1795810  -0.3779115   2.5766313  -1.1522994
   0.3395346   0.6456042   0.4057771   0.3721019   0.0985232   0.1500292
  -0.5092780  -1.0722405  -1.9087313   1.0828158  -1.2493398   0.3742779
   0.2310950  -0.0533546  -0.3937114   1.5234106  -0.9427404  -0.0813792
   0.9251438  -0.8527839   1.3937322  -0.0226495   0.2927017  -0.0841850
   0.1523481  -0.0179726   1.2012541  -0.1344477   0.7607943  -0.1363916
  -0.0719849   0.0650897   0.2849400   0.1847760   1.0226887   1.2838697
   0.8058614  -0.7655161   1.3805268  -0.2090432  -0.0739753  -0.1988107
   0.8752966   0.9357054   0.4329418  -0.2867250   0.2659830  -1.7396510
   0.1172982  -0.2835046   0.0032088   1.5602758  -1.4662339   1.6021668
  -0.4168091   0.8161293   0.1531502  -0.2247283  -0.1731123   0.1300075
  -0.3590753  -1.1535401   0.4195531  -0.2241264  -0.3586377  -0.4445456
   0.0933374  -0.1500946  -0.3410637   0.1242951  -0.3354007  -0.6446322
  -0.6829540  -0.2623095  -0.1115146   0.3938378  -0.2263351   0.1414448
  -0.2550659  -0.6511645   0.5961084   1.4902524  -0.6425414   0.2464825
   0.2307557   0.0486390  -0.2214457  -0.0875079  -1.0563312  -1.1150507
  -1.1566417  -1.1578812  -1.1177174  -0.2259871  -0.1728483  -0.0655769
   0.5358854  -0.1608281  -0.2158077  -0.9043463  -0.0362795  -1.0130601
  -0.0224110  -0.0177312  -0.2558421  -0.1216924   0.8503940   0.7830701
   0.2538964  -0.6107196   0.7327370   0.1801966  -0.1975859   0.1307332
   0.0159525  -0.4651942   1.4066557   0.6828344   0.5917366  -0.0540311
  -0.1516214  -0.0854953   0.0793875   0.5639394   0.8709047   0.7512100
   0.9604635  -0.5806193   1.1662302  -0.0373791  -0.0551691  -0.2257858
   0.5974483   0.0676722   0.8041216   0.4316549   0.4339715  -0.0867320
   0.1241821  -0.0664222  -0.0352053   0.4314452  -0.2650519  -0.1752131
   0.3196906   0.9258959  -0.9763683  -0.0168068   0.1995342  -0.1544483
   0.5531071  -0.9818400  -0.8208394   0.2746935   1.3642213   1.0134281
   0.0018907   0.3419520  -0.1866659   0.5537754   0.3066140   1.0865967
   0.0448222  -1.1197790   0.3845857  -0.7509279   0.1374549  -0.1575981
   0.1996646   0.5962960  -0.3299011   0.1116956   1.3904824   0.1589865
   0.5940870   0.1900158   0.1393371  -0.9494388  -0.4021239   0.3344099
  -0.0892147   0.3936590  -0.5836685  -0.0138882   0.2367970  -0.1803104
   0.9446351   1.1532396   0.1440991   0.9599976  -0.2055338   1.0091318
   0.1986314   0.0965922   0.0561497  -0.2876454   1.0313049  -0.2802185
   0.0473913   0.5166378   0.5077271  -0.2534224   0.0943871  -0.1580350
   0.4064787   0.0963001   0.4415023  -0.6838930  -1.1051079  -0.6717780
   0.0697388   0.1180112   0.1347424   0.1277633   0.8575206   0.3983105
   0.4176401   0.2300368   1.0019015   0.0952803  -0.0859354   0.3305659
  -0.0896700   0.0970187  -0.3422796  -0.1041057  -0.8579261  -1.3559148
  -0.1044598   0.1438354  -0.2040048   0.3353968   0.4309411  -0.3610443
  -0.3800885   0.3889271  -1.1061135   0.0588569   0.0955724   0.0475035
  -0.2712613  -0.6526975   0.0582957  -0.5963119  -0.5136871  -0.8631235
   0.2713184  -0.1652490  -0.1290269  -0.1490976   0.7965398  -0.4751474
   0.8832251   0.0995689   1.2836967  -0.1477246   0.1055735   0.1056979
   0.0626288  -0.6362428  -1.0016857  -1.8896816  -0.0815839   0.7980004
   0.1808761   0.1341185  -0.2289678  -0.0163913  -0.3472115   0.2788258
   0.8690947  -0.3111899  -0.3776751  -0.0741245  -0.0874111  -0.2507643
   0.9324864  -0.8000403   1.7095587   2.1457465   0.1122064   1.5214114
   0.0633579   0.1731035   0.0597510   0.4945364   0.2186214  -0.3150538
  -1.1518717   0.3750191  -1.4585541  -0.2074006  -0.2492755   0.1122936
  -0.7596398  -0.5239825   0.7451655   1.1518666  -0.2410272  -0.6667676
   0.0826148  -0.0025362  -0.1423207   0.0192796   0.0421582  -0.9489858
   0.1176515   0.0944739   1.2781160   0.2143958   0.0655472   0.0917018
  -0.1344391   1.4401977   0.9395855   0.3778754   0.6788493   1.9306924
  -0.1135863   0.3373454  -0.0410417   1.1263231   0.1432587  -1.1992404
  -0.7494678  -0.2196945   0.1915432   0.0963699   0.0069719   0.0884432
  -0.2859109  -0.3894595  -0.7750132   0.1655350   0.1048241   0.6143543
  -0.1267495  -0.1916420  -0.1716742  -0.2896185  -0.5612601   1.1983499
   0.6938619   0.3807981  -0.0704513  -0.3973350  -0.0915834   0.0271969
   0.0737938  -0.3137036   1.4023326   0.1093638   0.1155227  -0.2118665
   0.1151973  -0.2394916   0.1605392  -1.1907304   0.6492082   0.5527875
   0.1410757   1.0318433   0.7939646  -0.2508510   0.3169359   0.2503321
  -0.2116626  -0.8459468   1.0814409  -1.0829979  -0.1996137  -0.2168260
   0.1001184   0.0094170   0.4774200   0.2997321  -0.9967327  -0.9246883
   0.4995425  -0.6873261   0.3666913  -0.1485143  -0.2081842   0.2834899
  -0.6144654  -1.7832610   0.4700028   0.2127055  -0.0680640  -0.1958288
   0.1531850  -0.0199941   0.0094870   0.9126977   1.1772276   0.8393310
  -0.8691660  -0.5743804   0.0905978   0.0317844   0.3830491  -0.3010871
  -0.7102489  -0.2464727  -0.4858997  -0.6641236  -0.2530260   0.5588009
   0.1990727   0.1541091   0.0557630  -0.8697214  -1.4542419  -0.1883514
  -0.1901774  -1.0372836   0.4307683   0.2938042   0.1753305  -0.1685558
  -0.3908157   0.2943932   1.1158020  -0.5152482   0.7564693   0.1317369
   0.3229043   0.2389518   0.0693839   0.5586244   0.1548002  -1.0386551
   0.2926452   0.3199791  -0.7586106   0.3556419   0.1971865  -0.0934160
  -0.1603279  -0.0452110  -0.6846837   0.1315289   0.2736169   0.5671310
  -0.2431731  -0.5634810  -0.0262762   0.2864928   1.6560807  -0.7350409
   1.4087304   0.0808466  -0.9782911   0.0374556   0.1189791  -0.2404838
  -0.6255842  -0.5130689  -0.9315398  -0.4626053  -0.3398870  -0.8440308
  -0.2233518   0.0176764   0.1219742   0.2331590   0.0921573  -0.0078462
   0.5500363   0.1716086   0.4365455  -0.2480271   0.2202046   0.1367854
   0.7321301  -0.4757857   0.6005733   0.7803783  -0.5937888   0.8744290
  -0.0799640   0.1940389  -0.0432488  -1.0250767  -1.1111636  -0.7955282
   0.3073669   0.6572947   0.3523909   0.0245949  -0.3387515   0.0518596
  -0.2059543  -1.1394775   0.4032989   0.0197959   0.2614096   0.6740003
  -0.2158571  -0.2765877   0.0045378   0.9132993  -0.6688506   0.6473003
   0.5272195   0.4962998   0.9686526   0.3925030  -0.1498293   0.0535768
  -1.4145272   0.5641798   0.4561208  -0.3487847  -0.4588265  -0.1912973
  -0.2785508   0.2327061  -0.2031880   0.0321784  -0.0110150  -1.6182617
   0.8522008   0.4010035   0.8126394   0.0833213   0.0868533   0.2309799
   0.7548665   0.0558400  -0.1957338   0.6506961   0.7357190  -1.4198344
   0.1942335  -0.0996651   0.1842625  -0.1095131   1.4335968  -0.1665260
  -0.7959938   0.2927436   0.1978510   0.0311757   0.0899786  -0.1142820
   0.5316306   0.5741276  -0.4345504  -0.3277990   0.5257015   0.3554102
  -0.2491792  -0.3566610   0.0042889  -0.0804129   1.1683120  -0.4755185
  -1.2875244   1.0842106   0.5722622   0.0626722   0.0319058   0.1763499
   0.0095826  -0.1440972   0.9818022   1.9533843   0.7671323  -0.2687234
   0.0396222   0.3020493   0.4470962   1.4713578   0.3216620  -0.1797482
  -0.4172287  -0.1747435  -0.2355443   0.0257815   0.0613273   0.2071676
   0.5028925  -1.1757282   0.9674797   0.7840183  -0.3514127   0.4950776
  -0.2964376   0.1464430   0.0225473  -1.2139578   1.3406489   0.7409364
   0.4724997   0.7369020  -0.2756522   0.2820814   0.0507874  -0.0456859
  -0.2186253   0.5439750  -0.6217957   0.3321418  -0.6168382   0.3251847
  -0.1032471  -0.0250949   0.0141135   1.2618993  -0.6837369   0.6300958
   0.8166031   0.0820679   0.7710348   0.0219554   0.0451041  -0.1934696
   0.3632208  -0.0148593  -1.1361736  -0.3812728   0.6590470   0.1940746
  -0.2511047  -0.0216877   0.2261211  -1.2604416   0.5620962  -0.3304650
  -1.1406278   0.3315609  -0.2282719   0.0464842  -0.1877321   0.0453900
  -0.1189622  -0.5129196   0.3366766  -0.1565601  -0.4752054   0.6615674
   0.1448904   0.2310298   0.0794938  -0.9982134  -0.0886090   0.7794956
   0.4404226   0.3094125   0.5878710  -0.0212628   0.0847709  -0.6710471
  -0.8537242   0.3270228   1.3094005   0.5774339  -0.5432197   0.1786019
  -0.1288646  -0.5241525  -0.0822841   0.5693289   0.3791370   1.6343897
  -0.3911679  -1.2690080   0.3407133   0.1917311  -0.0255414  -0.1640758
   1.3496466  -0.9106745   1.2316907  -0.3077852  -0.4334681   0.1867049
  -0.4971087   0.0666514  -0.0231399   0.3185692   0.9134830  -0.3881256
   0.5934547   0.3439106   0.1300780   0.1238399  -0.1709587  -0.0974038
   0.8788463  -0.0752922   0.4047177   0.3172926   0.5122921   0.0459744
  -0.2429290  -0.0477846  -0.0423727   0.4289944   0.2706193   0.2658469
  -0.3315150  -0.1617360   0.9803548  -0.0210807   0.0951550   0.3703547
   0.2435743   0.8978095  -1.3041865  -1.4878989  -0.2395562  -0.2161634
  -0.0055046  -0.0566686   0.0980189  -0.5971424  -0.5676784   1.0639119
  -0.7477094   0.3198112  -0.9790775   0.2870229  -0.0981128  -0.0246033
   0.7092011   0.0965580  -0.2684813   0.1434924   0.4753561   1.9424264
  -0.0166582  -0.5396159  -0.2811007   0.7182115  -0.4926346   0.9139326
  -0.6577555   1.4518833  -0.0450715  -0.1171846   0.0703114   0.1440686
  -0.2504169  -0.0578409  -0.0842054  -0.3390775  -0.5326666  -0.5718331
  -0.0353139   0.1860416   0.2451329  -1.1984270  -0.8321301   0.3239025
  -0.2157608   0.2746958   0.7940136  -0.0932546  -0.1136631  -0.1172313
  -0.8825651   0.5377745   0.3641335   1.0490424   1.7356892   1.1626961
   0.2850076  -0.0183886   0.0398387   0.4690631   0.1262465  -0.6597007
   0.1021802   0.8484376   1.6471188  -0.1341696   0.0339864   0.0086156
   1.5957213   0.1170081  -0.7904788  -0.4719320   0.4699724  -0.3647602
   0.3148057   0.1614217   0.1550758   0.1016505   1.0708337   1.3957103
  -0.8125314   0.2496495   0.5618039  -0.2006197   0.0604235   0.1256915
   0.3418301  -1.4029083  -0.1728896   1.2420734   0.1435244   0.3054828
   0.1060192   0.0288465  -0.0404952  -0.3996793   0.7628561  -0.7567616
   1.0655803  -0.8892603  -0.7595734  -0.0831849  -0.2213652  -0.4485734
  -1.1951066  -0.3847522   0.6648017  -0.0103524   0.7531861  -1.2833460
  -0.0033519   0.0942950   0.0839498   0.4175869   0.6867201   1.3497718
   0.1880224   0.3127452  -0.4790607  -0.0850917  -0.3353548   0.1618316
   0.0683600   0.8725756  -0.7597310  -0.4910144  -0.6232197  -0.4902545
  -0.1061302  -0.0844135   0.0360155   0.0138390   0.3315251   0.6649864
   0.8937276  -0.5785802  -0.8175246   0.1343016  -0.0356579   0.3028363
   1.1408957  -0.4403632   0.9674127  -0.6073039   0.5454952  -0.1630237
  -0.1335616  -0.0152989   0.4821431  -0.9382964  -1.2637964   0.3386629
  -0.1582022  -0.4409778   0.5108661   0.0245980   0.1867521  -0.2537782
   0.2021293   0.4782385  -0.4752907  -1.2907737  -0.8198548   0.6583221
  -0.3915996  -0.1193629  -0.3524567  -0.3689379   0.3559986   0.0740193
   0.1798914  -1.9804457  -1.2506090   0.1359995   0.0200550  -0.1132801
  -1.1329047   1.1574996   0.1265453   1.5974276  -0.9414162   0.2642782
  -0.1497022  -0.2561724  -0.0724784  -0.1709996   0.3150327   0.4708162
   0.2692576  -1.1418434  -0.2337655  -0.1035080  -0.1155849  -0.0110691
  -1.0092894  -0.3536626  -0.4318325   0.1537183  -0.7713602  -1.0114130
  -0.1212930  -0.0985954   0.1447552   1.6367438  -0.6861431   0.1044169
  -0.6913568   0.8458995   0.3404862   0.0160945   0.0085957   0.1197115
   0.9006726  -1.1070337  -0.9730346  -0.2655633  -0.9089536  -0.5905156
  -0.0425270   0.3360104  -0.2871908   0.5065561  -0.7422254  -0.1857014
  -0.3054284   0.3924435  -0.5593172   0.3768322   0.0320208  -0.0151392
  -1.5486633   0.6579719   0.3112583  -0.4211170  -0.8917003   1.2906600
   0.1402785   0.0767575   0.3105431   0.0563014  -0.2887964   0.2924194
  -0.1917723   0.1168521   0.5384584  -0.5267934  -0.0836832  -0.2005215
  -1.5937258  -1.8789029   0.9727051  -0.0552055  -1.6316630   0.3586825
  -0.2975146   0.1604647   0.3397527   0.6446706   0.0121697   1.7222939
  -0.5533260   0.2911100  -0.3822415   0.0872293   0.0073237   0.1509335
   0.2811769  -0.1799172  -0.0350915   0.9943046  -0.9182343  -0.6511085
  -0.1005296   0.3106777   0.1244438  -0.3862617   0.7789933   0.6057434
  -0.0105232   0.5643523   0.2931916  -0.1408189  -0.0592772   0.0082795
   0.6535633  -0.8050091  -0.0062266  -0.0513439   0.1896509   0.4883870
  -0.0384146   0.0788170  -0.1948267  -0.5452487   0.0611449  -0.3471892
  -0.2793433  -0.3658461  -0.8170236  -0.1054389   0.1108838   0.0715850
   1.3733592  -0.6951246   0.0009558   0.2623226  -0.7113760   0.2720560
   0.1199712   0.2425125   0.1578710   0.9933584   0.5485125  -0.1882925
  -0.5802117   0.6864400   0.4876517   0.0533899  -0.0690231  -0.0951917
   0.2884018   0.2212226   0.7315848   0.0304696   0.1172146  -0.2485410
   0.0918728   0.3982326   0.2258075  -0.4771807  -0.9383508  -0.4263801
  -0.1430968  -1.6338736   0.8444326  -0.1166879  -0.0366608   0.2574681
  -0.0905217  -0.9399224  -2.2814669  -0.3257069  -0.3480008   2.1809213
   0.3443792  -0.4315870   0.0858341   0.7160837   1.7960782  -0.1464985
   0.4851344  -0.7399681  -1.3895697   0.2574749  -0.2794258  -0.1370756
  -0.5902456   0.7088674  -1.5817042   1.2346337   0.2103961  -0.1567523
  -0.2327124  -0.3232453   0.1020706  -0.4770695  -1.2240453  -0.1548991
   0.4280997   0.2815328   0.4965964   0.3351371  -0.2947675  -0.1423412
  -0.7220700  -1.2854579   0.2977611   0.5031658   0.5904309  -0.7559903
   0.0971027   0.3346195   0.0850459   0.6633528   0.2188846   0.2502535
   1.3345900  -0.1327314  -0.0674606  -0.1290099   0.0394652  -0.2827066
   0.9513474  -1.0800872  -0.6790889  -0.0851899  -1.4302236   0.0630570
   0.1609673  -0.1533429  -0.0264006   1.7258337   0.1378506  -1.7845200
   0.5258656   0.3516884  -0.3183137   0.0624954   0.2376561  -0.1182023
  -0.0509012  -0.2961048   0.9323618  -0.6986878  -0.9103689  -0.7514447
  -0.0363841   0.1181339   0.3459256   0.5445402   0.3296592   0.4053390
   0.7050440  -0.0771238  -0.7337375   0.1124066  -0.2174105  -0.1023016
  -0.1190410   0.3427492  -0.2172284   0.5515213   0.5150938  -0.2796365
   0.0671247   0.1149248  -0.0419763  -0.4316312  -0.1881116   0.2173960
   0.0286903  -0.0603563  -0.1177724  -0.1523963  -0.1911348  -0.0753885
   0.0530928  -0.5105079  -1.1274885  -0.1206388  -0.0613570   0.4591653
  -0.1700331  -0.0559216  -0.0878430   1.1151781   1.1500540  -0.2293055
  -1.6254890  -1.1187188  -1.8189569  -0.0596116  -0.4343763   0.0232605
   0.6266648   0.9540065   0.7721146   0.1407171  -0.3691358   0.3221210
  -0.1572445  -0.0159730   0.6829128  -0.1418247  -0.1677509  -0.5418983
   0.4646756  -0.6347390   1.3218695  -0.1186045   0.0089381  -0.1064861
   0.0038521   1.5799987   0.6641862   0.7470112  -0.2228967   1.1060162
  -0.2468302   0.0263941  -0.1495237   0.5714748   0.3371116   0.7204271
  -0.4160902   2.6481442   0.0925198  -0.1561027   0.0806537   0.2634862
  -0.3140189   0.7613287  -0.2688526  -0.1601014  -1.1141903  -0.7979232
  -0.0177764   0.1503844  -0.0974742  -0.4853459   0.9064406  -1.4660738
   0.1460894   0.2437320   0.6300402   0.3603426   0.3897308   0.0064845
  -0.4943944   0.6850773   0.9110597   0.4426043  -0.0966458  -0.4783077
   0.1547160   0.2326176   0.1464252   0.6902538  -0.5184791   0.4123858
   0.4359979   1.4165204   1.3804597   0.0303739   0.1850353  -0.1745948
  -1.5073411   0.8082360   0.0065752  -0.0412493  -0.2066804  -1.0718110
  -0.2008369  -0.0909934   0.3325435   0.9368779  -0.1333332   0.5179829
  -1.1986804   0.8520878   0.7538147   0.0160107   0.0758236  -0.3132010
  -0.1091666   0.0844986  -1.0267921   0.0538097   0.0281982  -1.0961604
   0.1347241  -0.1839059   0.1369282   0.4425531  -1.4564513  -0.7674618
  -0.2386245  -1.4875415   0.8435283   0.1789844  -0.1349674   0.0679862
  -0.7976599   0.1742132  -0.6825996   0.4114542   0.1380805  -0.6606359
  -0.1062018  -0.1928314   0.1863761   0.9878939   1.5683415   0.3566875
  -0.4132763  -1.0905227   0.2805012   0.3483786   0.3630390  -0.0240505
  -0.5219327  -0.1239758   0.9107707   0.0843061  -0.3095116  -1.8872195
  -0.1169313   0.1791735  -0.0781599   0.4136924   1.3149985   1.6731426
   0.0869642  -0.5232815   0.2018830   0.0024260  -0.1695806   0.1521241
   0.1282694   0.9066724   0.3320994   0.9891486   0.1980893  -0.2229957
   0.0296656  -0.0434339  -0.0060719  -0.0824868   0.7581325   0.3618999
  -1.0670172  -1.3139795  -0.2398191   0.0324671  -0.0861724   0.2317067
   0.1597000  -0.9796546  -1.1140996  -0.4105189  -1.5792558  -0.7833549
  -0.4463901   0.0792038  -0.1253688  -1.3280572   0.1052308  -0.1573692
  -0.0838084   0.3913188  -0.1064238   0.1814331   0.1873583  -0.1402533
  -0.7560964   0.7939432  -0.2661704  -0.1477043   1.2284943   0.4851520
  -0.0408106  -0.3804493   0.2676256  -0.8771232  -0.2128139   0.0024835
  -0.1654502  -0.0423994   0.5208222  -0.0173273   0.2768885   0.0291312
   0.0452652  -0.4908347  -1.5000818   0.6681149   0.0406673   1.2599307
  -0.2912306  -0.1865020   0.0370933   0.5626298  -0.8669044   0.6527282
  -0.0342540   0.8461730   0.0657962  -0.2094410   0.1929215   0.1064316
   1.2487472   0.5352147   0.3076086  -0.0101577  -0.4478294   0.1445629
   0.4219604   0.1374651   0.3808514  -0.4387739   0.3318685  -0.5377999
  -0.7798035  -0.1123506  -0.2270644   0.1264129   0.3821629   0.1385320
  -0.2501066  -0.3240777  -0.8400149   0.1680011   0.6822241  -0.4422911
  -0.2285059   0.3150290  -0.0162901   1.4563746   0.7609239  -0.7109210
   0.7566360   1.5274409   1.1487267  -0.2652444   0.2169204   0.0414218
   1.0627210   0.5792807   0.8910511   1.3624772   0.2360930  -1.4465391
  -0.1197494  -0.0310306  -0.0336181   0.6424812   0.6153329   0.5793738
   0.9821186   0.2136678   0.2110565   0.1299449  -0.1088233  -0.0267999
   0.4565304  -0.2508443   0.9133678   0.4587687  -0.5601497  -0.3111300
  -0.0449613   0.0656216  -0.5442913   0.6035591  -0.6312572   0.3504325
   0.8794526  -0.8103421   2.3060266   0.0433145  -0.0085356  -0.0760242
  -0.0314712  -0.7262749  -0.0946368  -1.2226043  -0.7545270  -0.4837977
  -0.2128655   0.1790080  -0.1560852  -1.3252097  -0.4543676  -0.1189381
   0.3272965   1.5956584   0.2916331   0.4428460   0.2929664  -0.2210124
   0.8620598  -1.0467413   0.4164433  -0.9497318  -0.5418634  -0.7227908
   0.1243143   0.1621488  -0.2767684  -0.1000080   0.7197234   0.7730943
  -0.2319727   0.4440449  -0.2009790   0.3129327  -0.2667449   0.0520813
   0.7274791  -0.6101035  -0.6966215   0.6391350   0.1548978   0.0485149
  -0.2314499   0.2730834   0.0426860  -0.1222446  -1.5155444   1.1089361
  -0.4575908  -2.4097590   1.4245507  -0.2431596  -0.1568983  -0.2608558
   0.0805499   0.4190507   0.6860563  -0.5034178   0.0590465   0.6315622
  -0.0004198  -0.3829051  -0.0566541   0.0805010  -0.2960246  -0.5840857
   0.4405874   1.1567442  -0.5508127   0.0513100  -0.1659504   0.0857350
  -0.5676065  -0.2451940   1.4282459  -0.6875122  -0.8257766   0.1604464
   0.0033608  -0.2883903  -0.0605858  -0.4070240  -1.2367144   1.7981626
  -0.5197897   0.9724466  -0.0198619  -0.1725691  -0.0871961   0.1175819
  -0.8408874  -0.1669516   0.4852288  -0.0041106  -0.1135988  -0.1592000
  -0.1989713  -0.0113466   0.1130297  -1.1386788   1.2901173   0.2764944
  -0.2150076   0.0586809   0.9107203  -0.3870770   0.1151786  -0.1973364
  -0.9767000  -0.6810144   0.5860140   1.2592250   0.2473748   0.2311135
  -0.2700170  -0.1108941  -0.0840885  -0.2469474   0.4470187   0.9341655
   0.7478565   0.5396727   0.0204996  -0.0045749  -0.0890759   0.2743261
   0.0480726   0.5048357  -0.1545614   0.6441114   0.5053324   0.5352677
  -0.0156498   0.0583060   0.3982672  -2.4587298  -0.2151747   0.1794253
   0.0162336  -0.4320592   0.6222241   0.1945397   0.0199480  -0.1361091
   0.6670250   1.1270583  -0.6079694   0.8433567   0.0059504   1.0147492
   0.1069794  -0.1360034  -0.2960483   0.5073044  -0.2546041  -0.9367825
  -1.2077650   0.9476363   0.4574242  -0.1918763  -0.0684928   0.1152616
  -1.3162183  -1.2473765   0.9974811   0.3429858   0.9124949  -1.9189271
  -0.2426555  -0.1669369  -0.2248237   0.0834277   1.1871841  -0.7663054
   0.5330325  -0.4332243   0.2738645  -0.1562519  -0.1711661  -0.3147490
   0.7798071  -0.2479022   0.1731786  -1.2060540   0.9498344  -0.6707368
   0.2452586  -0.1423637   0.2900386  -0.8486135   0.4611762  -0.3400320
   0.7305028  -1.6653469   0.7708090  -0.0207865  -0.0792756  -0.3768638
   0.7264395  -0.2162832   0.4083355   0.2136791  -0.1089414   0.3833535
   0.2799653  -0.0230160  -0.2112608  -0.3111629  -0.4073532  -0.8691294
   1.1841609  -0.2592669  -0.2782210  -0.0933387  -0.2493727   0.0924767
   0.7615832  -0.5344041   0.3859836  -0.8365435   0.3199983   1.3353340
  -0.2193561  -0.1150106  -0.0443434  -0.4211046   0.2820934  -1.4639118
  -0.4316451   0.8383080   0.0504034   0.2513863  -0.0669501   0.1953174
  -1.1256216   0.3039731   0.9216486   0.1730936   0.7071737  -0.5354306
   0.0862632  -0.3959404  -0.2687701   0.7733383  -0.2769210   1.1864549
  -0.1417541  -0.0983523  -2.2519568   0.0024011  -0.0651923  -0.1166544
   0.6722097  -1.0498705   0.2890844  -0.4085114  -1.0973422   0.0770542
  -0.2931876   0.1479200  -0.1265248  -1.4718263  -0.4798007  -0.0877070
  -0.0194044   0.2119347  -0.1335991   0.1722066   0.0436219   0.0561893
  -0.4555593  -0.3975386   0.3822954   0.2666979  -1.3693228   0.1884082
   0.0885818  -0.2379916   0.0994817  -0.3757827   0.0443375   0.5901325
   1.8897773   0.0055124   0.2904862   0.0832490   0.0869370   0.0372323
   0.4057789   1.3672549   1.7150695   0.3792917  -0.6217068   0.8384183
   0.1855566   0.0192132  -0.2653442   0.3985002   0.7209681  -0.5624014
   0.8341483   0.2836148  -0.3334838   0.1125248  -0.1384271  -0.5348425
  -0.3824209   0.7064048  -0.2145850   0.4762035   0.8616365  -0.2735048
   0.0567744  -0.2109359   0.1499602  -0.0131678   0.8835192  -0.2718582
   0.7717746   0.8664302  -0.6397328  -0.2976335   0.2672526  -0.1465376
  -0.5544275   0.5989464   0.5125657   0.5319922  -0.3870308   0.8809656
   0.1055570   0.0846641   0.1836157   1.1720825  -0.9126675   0.7832716
   1.1183159  -0.4042307   0.7773885   0.0907190  -0.1331701   0.2230936
   1.5585382   0.0423102  -0.7425397  -0.0373068  -1.6842937  -0.0455876
   0.1319175  -0.3068417   0.1431277   0.6755043   0.3993207  -1.1509123
  -1.4938469   0.3636800   0.2304023  -0.0309881   0.0501694   0.0803701
  -0.0461773  -0.3738817   1.1296988  -0.3161322   1.2730215  -0.7553832
   0.2677381   0.4381851  -0.2186613   0.4898239  -0.7933047  -0.7922312
  -0.4474837   1.0369279   0.3206356  -0.1206581   0.0054533   0.1180760
  -1.3576391  -0.8164676   0.0142618   1.5254004  -0.7751873   0.3499684
   0.1036351  -0.1110362   0.0650326  -1.0314643   0.6358807   0.1035956
   0.1436896  -1.4067009   0.5892143   0.1411298   0.0724818  -0.0401972
   0.0973558  -0.7799561   0.2184911   0.3894031   1.1168882   0.2128512
   0.3015078  -0.2134181   0.2583325   1.2600600  -1.2496860   2.0131533
   0.7158759   0.5017868   0.5032366  -0.0567607  -0.0871111  -0.0542007
  -0.3097730   0.7381904  -0.4531101   0.4053495  -1.0378981   0.0180584
  -0.2278294  -0.2433009   0.2909724   0.4211037  -0.5049231   0.4024934
  -0.1671447   0.3216278  -0.6898656   0.0599321   0.2155192   0.0128154
  -0.9731107  -0.3450909   0.8731401   0.0082542   0.1312578   0.3732978
   0.0898971  -0.1212823   0.0953734   0.3845484   0.6707300  -0.4658761
   1.2776388   0.7128177   0.3975916  -0.0110010   0.0506576  -0.6717829
   0.5229257   0.2120946  -1.4043085  -0.8480860  -0.1584246  -1.6977699
  -0.1725151   0.2872997  -0.1768468  -1.2972858   1.8885849   0.2284058
   0.2292310  -0.9810240  -1.1172773  -0.1307718  -0.2362378   0.1119237
   0.3872240   0.0669759   0.0951402   1.1372978   0.5257216   1.4585713
  -0.1507114   0.2771881   0.0457114   0.5136586  -0.0491604  -1.0772952
  -0.7449699   0.1272859   0.1415931   0.1511895   0.1726220   0.2267910
   0.4396403   0.6114644  -1.3569936   0.8951625   0.2388548   0.1248683
  -0.0262923   0.0808583  -0.1330404   0.3455239  -0.4980267   0.9036264
  -0.5553276  -0.4771893  -1.3860186   0.0628958   0.1023303  -0.1083218
   0.6212481   1.2514908  -0.1057467   0.6469069  -1.1855458  -0.8335629
  -0.0614295   0.0510666   0.3941437  -0.7260763  -0.8854256  -0.4265728
  -0.0171713   0.3030793   0.5012187   0.0211871  -0.0671204   0.2479766
   1.3852307  -0.3386918   0.9518943  -0.8800865  -0.5024115   1.2598885
   0.1175673  -0.1780515  -0.0971230  -0.1580202   0.1701821  -0.8251492
  -0.0600582   0.3723291   1.0473324  -0.1471192   0.0542585  -0.0141565
   0.1953903  -0.8263867   0.8135328   0.9331751   0.5406394   1.0133355
  -0.1331591   0.1224178  -0.0648571   0.0660221   1.3617824   1.3502668
  -0.5834906   0.8398028   0.8351230  -0.2125457  -0.5634021   0.0946324
  -0.1708230  -0.3426538  -0.8423403  -1.4919521   0.9032360  -0.3413455
  -0.0185258   0.2355903  -0.0442404  -1.3763072  -0.6535654   1.0759893
   0.0973268  -0.3538502  -0.6684475   0.2447543  -0.0465527   0.1282058
   0.4301781  -0.3637366   0.6927628   0.3027791  -0.6856722  -0.3763073
   0.0451642   0.2606046  -0.0510654  -0.2924361   0.2320582   0.5403427
   0.3772930   0.0999107   0.5635612   0.0396056  -0.0692982   0.1479340
  -1.0792612  -0.5104139  -1.0190942  -0.0590337  -1.8319355  -0.5990478
   0.1623160   0.0069608  -0.0782249  -0.2004709  -0.2348591  -0.3320942
  -1.0090074  -0.3277026  -0.1618120   0.0877988  -0.0734366  -0.0871399
   0.6001999   0.8303821   0.1652968   0.7120197   0.2949782  -1.3949479
   0.4436866   0.0475797  -0.1813699   0.0543652  -1.0648869   0.8456283
  -0.2551222   0.8945003   1.2953370   0.1077368   0.1926809   0.0586386
   0.1441492   1.3164603   0.1472842   0.9640574   0.2206357   0.4766693
   0.0270798   0.0286670   0.0502490   0.1198344  -0.1145117   0.2613698
  -1.3987474   0.8190346  -1.5434946  -0.1550524  -0.1600016   0.1765893
   0.5324198   1.3498390   0.5105279   1.1295605   0.0214614   1.1446468
  -0.0866868  -0.1419704  -0.2192772  -0.1899094   0.2236798   0.4548986
   1.0812650  -0.8986399   0.8442062  -0.3100148  -0.1482432   0.1778399
   1.5130308   0.7010135   0.9025912   0.3950653   0.3417717  -1.9769551
   0.0008980  -0.0824133   0.2431523  -0.9586290  -1.2559455   0.2974806
  -0.6807866   0.2058983  -0.9849196   0.0631660  -0.0899957  -0.0996887
  -0.8754862  -0.5804902   0.0583589   1.0524200  -0.1058819  -0.4590594
  -0.0641171   0.0276292   0.3479254   0.7948920  -0.3727334   0.4940630
   0.5582991  -1.5483864   0.0483328   0.0591048  -0.0155227   0.1463797
   0.0342303   0.8848810   1.1232908   0.2165748   0.3224917  -0.3746422
  -0.1613037  -0.1377499  -0.1604967  -0.3173417   0.1161393  -0.4290370
   0.5456210  -1.7633349   0.9209002  -0.1992113  -0.3570274  -0.0758146
  -0.3117626  -0.9676016  -0.1784400   0.3026657   0.3729609  -1.4330297
   0.3480809   0.5424481   0.1885471   0.9330554  -0.1014166   0.6607590
   0.1461283  -0.3329390  -0.3257128   0.2071765  -0.2817920  -0.0050299
   1.2164670   0.7047340  -0.8029172   0.4750030  -1.8643108  -1.7249047
   0.0575298  -0.3906284   0.0660930   0.7726053  -0.4250240   1.2578106
   0.4792600  -0.1485521   1.2269601   0.3307982  -0.2933947   0.2150952
   0.6892941  -0.6587140  -1.1347899  -0.4995905   0.8667803  -0.0178274
  -0.1720768  -0.0818444   0.0409246  -0.7692702   0.1973500  -0.4519602
   0.1863706  -0.0699555   0.0948861  -0.0777900  -0.2660461   0.0210974
  -1.4288904   0.3235572  -0.5445500   0.5145633   0.2389410  -0.9468952
   0.1677497   0.1899000   0.2032888  -1.5195822  -0.0643803   0.3825699
  -0.3902452   1.2959965  -0.6793080   0.2299351  -0.3214644   0.0534038
  -0.4126001  -0.0662668  -0.5617928   0.4054096   0.4938540   1.2708769
   0.0942773  -0.0946058  -0.0467421   1.2001901   0.3773334   0.0134511
  -0.3042189   0.2224039   0.3639912   0.5496379   0.1371315  -0.2912885
  -0.0685386  -0.2839735  -0.7885665   1.4031276   0.0574127   1.6593913
  -0.0563141   0.3594805   0.2443278  -0.2340987   0.8677807  -0.2110082
  -1.5134467  -0.2959262  -0.0072233   0.0752904  -0.2497159   0.0082696
  -0.3527693  -0.0961112   0.4582484   1.0719564   0.4524663   0.7600378
  -0.1297920  -0.1728964  -0.1722954   1.4533430   0.0764913  -0.8363781
   0.0039169  -0.8864127   0.0388237   0.1090536  -0.3225882  -0.1469293
  -0.1416274  -0.7611264   0.4238422   0.2664940   0.1712590   0.8353184
  -0.1978043   0.0452295  -0.0422980   0.2122543  -0.4383535   0.7894475
  -0.4984629   0.8131915   0.1128112   0.1881625   0.0194955  -0.0051302
   0.3711018  -0.6839655  -0.5942536   0.3072330  -0.1073187  -0.0062845
  -0.1677783   0.0561724  -0.0955611  -0.7771129   0.2206160  -0.4241490
   0.3235967   0.6094656  -0.0547608   0.1014383  -0.0319987   0.0464061
  -0.0778580  -0.4031433   0.3561080  -0.6823533  -0.4995857   1.2102843
   0.0043307   0.2004962  -0.3020285   0.8767588   0.3141484   0.4875722
   0.6091298   0.8998939   0.6110945   0.1999336  -0.0788204   0.0913944
  -0.7557844   1.0678206   0.7753267   0.1626335  -0.6618046   0.1697936
  -0.3527338   0.1014067  -0.0453682   0.9902065  -0.5442797  -1.1200844
   0.5325491  -0.8754752   1.5090384  -0.0834388  -0.2824210  -0.2553752
   0.0210259  -0.2790832  -0.3228601   0.5227111   0.6369013  -0.8601959
  -0.0565834   0.1043938  -0.0507549   1.0531377  -0.9273605  -0.2174691
   0.0689087   0.0345986  -0.3987686  -0.2948177   0.2737010  -0.0354661
  -0.9988898   0.4938256  -1.0952996  -1.5093315   0.4022642  -0.6876265
  -0.3565659   0.2098975   0.2510141   0.4056172   0.2387283   0.2232476
   0.3148179  -1.2996814   0.1249953  -0.3273203   0.0116009  -0.1791639
   0.8677751   0.6944761  -0.9046948   0.0653675  -0.3313553   0.0801069
   0.0702533  -0.0865544   0.2591747   0.0952901  -1.0527882  -0.3685464
   1.5147833  -0.9430299  -1.7147258   0.2076859   0.0604182  -0.0491478
  -0.3235579   0.4116966  -1.2528015  -0.6846153   0.8582232  -0.3610195
   0.1647262   0.0615105   0.0201964   0.3316142  -0.2064318  -0.2940814
   1.4120143  -0.0144857  -0.6309910  -0.1269185   0.0362909  -0.0966083
   0.6580553   0.9597859  -0.1469075  -0.4522993  -0.3950505   0.6767137
   0.1117031  -0.0599456   0.2393076   0.3209784  -1.6889151  -0.2157915
  -0.2590974   0.5752994   0.7069775   0.1180984  -0.0316511  -0.1825418
   0.6183625   0.1460721   1.3781489   0.9098061   1.0944994   0.1661404
  -0.3289583  -0.1024272  -0.1662389   0.3518745   0.4913084  -0.1261448
  -1.8351169  -1.5185379   1.3237869  -0.0654543  -0.0936518   0.1125855
   0.9283555   0.6856204  -0.9395322   1.2978584   1.9172253  -0.9382952
   0.1511788  -0.5416195  -0.1383172  -0.7270241  -0.2886069  -0.4197760
   0.0347170   1.3569972   0.2941460   0.1338034   0.3053198   0.3499961
  -0.4847268  -0.3636133  -0.2336285  -0.6537670  -0.4159797   0.5609390
   0.3503935  -0.0307289   0.0598797  -0.8175429   0.4736419  -0.6509435
   0.3716966  -0.8780853  -0.7765690  -0.1703424  -0.3787362  -0.0727910
   0.9233320  -0.0478994  -0.0376840   0.1572864  -0.1538642  -0.4106078
   0.1233901   0.0144729   0.1301770  -0.7199077  -1.1988485   0.3116064
  -0.6927457  -0.1319124   0.9268818  -0.3333751   0.2523674   0.1981208
  -0.1580789   0.1904980   1.4083891  -0.7268149   0.4009299   0.5159002
   0.0652020   0.0684591   0.0036440  -0.8123886   1.4475865  -0.5765436
   0.4336843  -0.2478670  -0.5108371   0.1864056   0.0750267   0.1791298
  -0.2932448   0.6969586   1.4435726  -0.5159809   1.0384923   0.5432561
  -0.1496806   0.2018119  -0.0490208   0.4521832  -0.8369914   0.2812512
  -0.5642865   0.3056515   0.0275241  -0.0416688   0.2128657  -0.1542174
   0.4267656   1.4014195   1.3088495  -0.5220033  -0.7376830  -0.5497500
  -0.0777024   0.0192278   0.0539192  -1.3266913  -0.3332018   0.9380669
   0.3225009   0.3375989  -0.1316575   0.0385485  -0.1622981   0.0053269
  -1.2505317   0.2040247   1.8232111  -0.0194959  -1.8553183   0.2483211
  -0.5680634  -0.2798513  -0.2565821  -1.7480551  -0.9537862   0.0557138
   0.7535002  -0.8906712   0.2596402  -0.1488840  -0.0743715   0.3206392
  -1.3346274   0.0650279   1.5645196  -0.8159607   0.4647846  -0.4614575
   0.0358992   0.0350052   0.1753087  -0.5066414  -0.3874101  -0.8763921
  -0.9950320   1.4107711   0.5463472   0.0376574   0.0536813   0.2604446
  -1.0098034  -0.7821206  -0.1757089  -0.6000850  -0.4434932   0.1584368
  -0.1343921  -0.2442251  -0.2278637   0.2529081   1.6076642   0.4038050
   0.3465561   1.1346854  -0.0759196   0.0005087  -0.3519408   0.0492503
   0.4896657  -0.3475248   0.7127755   0.0899549   1.2580904  -1.0074331
   0.1017700  -0.1397564   0.0818636   0.0011116  -0.2313604  -1.1994209
   0.0494879   0.0310786   1.0088366  -0.0186574   0.0412182  -0.3547990
   0.2202218   1.4913061  -0.1731314  -0.0067826  -0.0240472   0.0164762
   0.0977990   0.1789311  -0.0685320   0.0834018  -0.3557414   0.0465176
  -0.9538175  -0.1747685   0.4338072   0.2411720   0.3364249  -0.3723382
  -0.0862660  -0.1945346  -0.1402132   0.4228225  -0.7525969   0.0993612
  -0.1354622   0.1243619   0.0500772  -0.8579809   0.9198359  -1.2547249
  -1.5152678   0.3174720  -0.7551158  -0.5808093   0.0450164  -0.1920565
  -0.7085965  -0.3392174   1.0601119  -1.8662038   0.8834587   0.5821885
   0.2625086   0.1423241  -0.0656437   0.6472619   0.2523421  -0.5742494
  -0.7717891  -1.2527093  -0.2363023  -0.2383143  -0.3327985   0.1846702
  -0.0437957   0.4299424   0.3969174   1.0396804  -0.2730687  -0.1367964
  -0.3792240  -0.2138801   0.0717628  -0.7356348   0.4854242   0.7035606
  -0.3563269  -0.4033346  -0.7359041   0.2253728  -0.0709023  -0.2857947
  -0.3641743   0.9941133   0.2121684   1.1962807   0.4819522  -0.0913166
   0.0331897   0.1677746   0.0110150  -1.1846890   0.3353366   0.4743406
   0.9990322  -0.1320753  -1.7106094  -0.1650381   0.1809819   0.1057349
  -0.2397374   0.1415942  -0.3376616  -1.5774642  -0.8728553  -0.6990323
   0.0648129   0.0857393  -0.0380910  -0.1461024   0.9473297  -0.5405687
   0.8792247  -1.0803500  -0.4275671  -0.2572567   0.0648901   0.0200865
  -0.3035033   0.0988052  -0.2840481   0.2324342  -1.0692284  -0.1696834
  -0.0715757  -0.1604885  -0.4338766  -0.2556134  -0.8498746  -0.8861987
   0.2360951  -0.6937003  -2.4267858  -0.3818593   0.3493115   0.1656437
   0.3801400   0.9127274   0.1745950   0.1569918   0.0199892   0.1802737
   0.0425107   0.0005451  -0.2952753  -1.2739073   1.4462488  -0.2621594
  -0.0247517  -0.9690569  -0.3269562   0.0536526  -0.0749836   0.1995147
  -0.2604285   0.0095257   2.3425521  -0.4332205   0.1560306   0.8735372
  -0.0176799  -0.0189993   0.2196191   0.0231224  -1.2635739   0.3013943
   0.6656966   0.1115994   0.6059677   0.0306983  -0.2868815  -0.2421703
  -0.0406284  -0.7499585  -0.8171033   0.7953349   0.1694203   0.3076303
  -0.5308392   0.1098834   0.1732107  -0.6898542   0.4477756  -1.0022087
  -0.5327508   0.2877882   0.3770228   0.0203856  -0.1129320   0.2026136
   0.6386462   0.2484444  -0.4104362   1.2292277   0.2263829   1.0393271
   0.1205123  -0.1707202   0.0318619   0.5957471   0.6129287  -0.4414654
  -0.7213078   0.3270042   0.3021526   0.2865527   0.0001613  -0.1153539
   1.2193754   0.5542467   1.3648352  -0.3875488   0.1332718   0.8147552
  -0.1102350  -0.1283563   0.0367308   0.5405752  -0.5762106   0.3545958
  -0.1691176  -0.6756949   0.8456595   0.0563348   0.2653301   0.0059252
  -1.0920224   1.2490752   0.2646483  -1.8214908  -0.3907547  -0.2960277
   0.0730666  -0.1081845  -0.0235233   1.0431793  -0.4690207   0.2950873
  -0.4760140  -0.6537997  -0.4429660  -0.0787303   0.1908453  -0.0342675
   0.6559291   0.2397488   0.7843156  -0.1722371  -1.8469760   0.0622067
   0.5427826   0.4980748   0.1414914   0.7722820   0.7316946  -0.5724611
  -1.2738332  -0.2281000  -1.0472699   0.0669947   0.0657431  -0.2525275
  -0.5332484   1.0933038   0.2719858  -0.1634241  -0.1884128  -0.6921112
   0.1667358  -0.1015241   0.1132450   0.7501019  -0.6409854  -1.2905857
  -0.2523569   0.7519694   0.4493293   0.1839911  -0.1081730   0.0112538
   0.9209080  -0.1053851  -1.2670417  -1.9351730   1.1632335  -0.4714570
  -0.2315608   0.0010570   0.2978196  -1.0165075   0.1220740  -0.7663357
  -0.7851209  -0.4347838  -0.6510732  -0.1236960   0.1768957  -0.1011625
  -0.8565937  -0.2259332   1.2291642   1.7759113   0.0776595  -0.5532640
   0.2021076   0.0786181  -0.1153482   0.3351798   0.0872812  -0.4779073
   0.8687925  -0.3849605   0.2972642   0.3121513   0.1112684  -0.2648997
  -0.0776570  -1.0601830   0.0989052   0.1997586  -0.1428776   0.6372758
   0.1354029  -0.3685130   0.0888477   1.0715994   0.1132812  -0.3093118
   0.9512912   0.5839296  -0.3659961  -0.2113636  -0.3804315  -0.1314292
   0.2602839   1.1209364  -0.5581276  -0.2372373   0.9169086  -1.4692683
  -0.0570034  -0.1618726   0.0361528   0.8643431  -0.6394216  -0.4076213
  -0.6608726  -0.2250534  -0.0139964  -0.0722114  -0.4451630  -0.0764725
  -0.0128931  -0.3182719  -2.4916060   0.8153291  -0.3740653  -0.7200806
  -0.2027845   0.0087668  -0.2770949   0.8900080  -1.2133418  -0.3838994
   0.8231230  -1.1497708   0.1251261   0.2763822  -0.0622022   0.5488020
   1.9069125  -0.6990906  -0.1702641   0.5531080  -0.4721462  -0.7309076
   0.1877809  -0.0396407  -0.0753179  -0.9359586   0.5803309   0.4496842
   0.2314812  -1.6750544   0.0837069   0.1584566  -0.2385617   0.1207472
  -0.9983559   0.4469275  -0.6949308   0.0576891   0.3891318  -0.8448145
  -0.0712246  -0.4238530   0.0232228   0.3054833   1.8895499   0.6107510
   0.3234393   1.0417160   0.7440094   0.0458316   0.3174873  -0.2601346
   0.1318990   0.3493269  -1.0215863   0.0925498  -0.8631119  -1.3358897
  -0.4736210   0.1314256  -0.1522847  -0.3513054   1.1986135  -0.5350427
   0.5588751   0.7824236   1.5129578  -0.0144921   0.3295487   0.1339686
  -1.3238265   1.7072064  -1.0574203   0.0418706  -0.8647934   1.2054204
   0.2195660   0.0196042  -0.0379068   0.8155633  -0.7083510   0.3890972
   0.1456258  -0.1538335   0.9434099  -0.3089548  -0.0122368  -0.0655882
  -0.1162781   0.7904380   1.0536550   0.8194020  -0.4161036  -0.0989240
   0.1051603   0.4756032  -0.1073796   1.4304584  -0.9466642  -0.1044702
  -0.1524001  -0.2105416   0.1683648   0.0179788  -0.0781701   0.2223205
  -0.2762829  -0.8187764   1.8245207  -0.0821426   0.4032021   0.5020714
   0.2662110  -0.1285800   0.0551539  -1.6424917   1.1308449  -0.4533960
   0.8920484  -0.4817186   0.1176991   0.1689526  -0.0905916   0.1139036
  -1.2151669   1.0589184   0.3102932  -0.0360661  -1.5655803   0.8761586
   0.0883395   0.0995238  -0.3772809   0.4964668   0.3266542  -0.0481243
  -1.9784177   0.5654501  -0.1191956   0.1127735  -0.1644014   0.1231637
  -0.5718999  -0.0114024   0.1640339  -0.0895351  -0.5344997  -1.2381303
   0.1106512  -0.0462916  -0.0719260   0.5652063  -0.5602207  -0.7206901
  -0.2228079  -0.2787214   1.8250992   0.0578156   0.0048724  -0.1563179
  -0.3786624  -0.0587886   0.3493979  -0.8394680   0.3495311  -0.4189339
  -0.1717633   0.2445231  -0.1214525   0.3384650  -0.7620116   0.3030263
   0.8302032   0.3160114   0.6450550   0.3410866  -0.1560577   0.2975674
  -0.1945156   0.8959469  -0.2424292   0.6634689  -0.2579326  -1.4071845
   0.2935388  -0.2545548   0.0904329  -0.0855536   0.6472899   0.4677098
  -0.9209198   1.2570955  -0.4832202   0.1440002  -0.0310756   0.1264659
  -1.2271567  -0.2990772   0.1964781  -0.6330012   0.5104869  -0.2295903
  -0.1345273   0.2433311   0.3246371  -0.2075480   0.4719884  -0.4497819
  -0.0301956   0.6069338  -0.6457753  -0.0633223  -0.0957685  -0.2413762
  -1.3188812  -0.1838377   0.1273919  -0.0027082  -1.3112982   1.0617611
  -0.3382369   0.0355164   0.3051566  -0.5329341   0.3292641  -1.1153602
   0.2259630  -0.5934642  -0.1448804   0.0967372   0.3714755   0.0194231
  -0.7304960  -0.1628165  -1.0486075  -0.7965894   1.4805328  -0.5849166
   0.0948352   0.2371360   0.2404668  -0.3357154  -0.3959666  -0.5149436
   0.4751554  -0.3073241   0.3902030   0.0594556  -0.2218412   0.0089828
  -0.0632249   0.2800993  -0.0076348   0.2559996  -0.5730583  -0.1901055
   0.0465801  -0.5465664  -0.1385969  -0.0555033   0.6268394   1.1825180
  -0.4398852   0.3343605   0.9763185  -0.0021553   0.0206355   0.0340246
   0.3567415  -0.6909367   0.0749761   1.1394733  -0.0536656   0.2756175
  -0.3208854  -0.0184248   0.1169179   0.2640741   0.7322030  -0.0371770
  -0.9829837   0.3117688   0.4599828   0.0290676   0.0835748   0.1856153
  -0.5017833  -0.6576514  -0.5302235   0.5867209   0.0050067   0.2047111
  -0.2948219   0.0384305  -0.1333368   0.3844292  -0.8688035  -0.6453820
   0.3248985   0.3313791  -1.8051353  -0.2108307   0.0201651   0.0155799
  -0.0390242   0.1926787  -0.6384829  -0.4935496  -0.2872884   0.5195442
   0.1959667  -0.0455690   0.1425666  -0.5824238  -0.4796157  -0.5994730
  -0.2160762  -0.2668095   1.7983969  -0.0191444  -0.2132516  -0.0953514
  -1.2390555   0.5462391   0.8729005  -0.7149822  -0.4360911   0.4047272
  -0.1158258  -0.2921216  -0.1309443  -0.0850768   0.5164442  -1.0726031
  -1.6024470  -1.1779267   1.8573905   0.1753657  -0.0841811   0.0165055
   1.3884054  -0.3308644   2.0980173   0.9790779   0.7348646   0.5964899
   0.1709223  -0.0072326  -0.0433220   0.3645686  -0.7005207   0.7489758
   0.5792188   0.3439316  -0.1990291  -0.0998980  -0.5445847   0.2748453
  -1.4793709  -0.2173985   0.8069407   0.9472347   2.0074447  -0.0801044
  -0.1218866   0.3868472   0.0820069  -0.4153010   0.2041130  -0.6257392
  -0.1783810  -0.2332864   0.1690094  -0.3806506   0.1852680  -0.1688130
   0.3613984  -1.6970970   0.3327082  -0.6888612  -0.5898780   1.0212703
   0.0307254   0.2243382   0.0800169   0.1933168   1.1998406   1.4544307
  -0.0810307  -0.9033597   0.4142204   0.2521536   0.2993877   0.1319052
  -0.7693608  -0.5297561  -1.0996083   0.5532910  -1.0414172  -0.1510594
  -0.2159770   0.3618179  -0.2655930   0.5672083   0.7753150  -0.1147059
   0.3249897   1.0205846  -0.0582863  -0.1677550  -0.3511245  -0.3745682
  -2.3413601   0.7516866  -0.5940436   1.0075973   0.8268621  -0.2298622
  -0.0265839  -0.2634357  -0.1313390   0.6253181  -0.1085793  -0.1841083
  -0.0258051  -0.2710228  -0.8542765   0.1009328   0.0727936  -0.2110773
   0.2090439  -0.2563095  -0.3196746  -0.2958088   0.1202302   0.5103293
   0.1640170  -0.4050541  -0.2691753  -0.5904323  -0.2061621   0.7476663
  -0.0739077  -0.5440224   0.6874427   0.2803025   0.0732345   0.1562810
   0.6285841  -0.8027451  -0.7576351   1.1705763   1.4904464   0.9502831
   0.0705942   0.2138510   0.1644644   0.6940621   0.7069674  -0.4298783
  -0.3895814  -1.9990736  -1.3049637  -0.1509789  -0.1056618   0.1719627
   0.1975804   0.5852854   0.4229214   0.2045059  -0.0460846   0.2744212
   0.2127703  -0.0103883  -0.0848979   0.6478794   0.9279911  -0.2678080
  -0.0084054  -2.4133957  -0.3916769   0.1348477  -0.0513480  -0.0553214
  -0.2139063   0.2996881   0.5109248  -0.5695082  -0.3105113   1.0411836
   0.2871314   0.1817225   0.1001839  -0.3414044  -0.3634010  -0.1209831
   0.0715912   0.6430154   2.5962861  -0.2073253  -0.3813630   0.0432666
   0.2847741   0.5008916   0.1446365  -0.3113325  -0.2200013  -0.9150167
   0.0336472  -0.0124039  -0.1662292  -0.5352700  -0.1879098  -0.1568469
  -0.2266281  -0.1884123   0.9257601  -0.3557021   0.3588258   0.1761262
   1.6302674   0.2650656  -0.5131910  -0.3763062   0.7557878  -0.6436971
  -0.1673685   0.1337201  -0.2470244  -1.0865392   1.1646814   0.4907458
  -1.1180990  -0.7078963   0.9025346  -0.3233727   0.0084775  -0.0089907
   0.3627849   0.0840969   0.0928459  -0.1120885   1.5306563  -0.6003463
  -0.1715276   0.1358641   0.1752711   0.5540850  -1.9776202  -0.0229863
  -0.2589326  -0.2469554   0.2562498  -0.1035359  -0.0428043   0.1486743
   0.2196328  -0.2776194  -0.3903273  -0.9215839  -1.0243818   0.5384547
   0.0249993   0.2250739  -0.1079437   0.2877131  -1.3946480   0.6303992
   0.5635391  -1.4158238  -0.2692582  -0.0792018   0.0737788  -0.0260434
   0.1120010  -0.1502028  -0.5921898  -0.2502926  -0.5153394   0.4612679
  -0.0405834  -0.1530642   0.1424259   0.0589471  -0.1414752  -0.0458104
   2.4072690   1.3428607   0.8975012  -0.0161323   0.0414912   0.2018520
  -0.9945540   1.2046064   0.1530788   0.8991241  -0.5046059   0.0006915
   0.3226370  -0.0065423   0.1131509   0.0857484  -0.9505024  -0.5179591
  -1.0469782  -0.4549731   0.6512977  -0.0217398   0.2402797   0.1822000
  -0.3402037  -0.3793855   1.9366165   1.5710349   0.2108825  -0.3605942
   0.1085469   0.0080788  -0.1404086  -0.7755149   1.1625269  -0.5552985
  -0.6927809  -0.2959940   1.0421100  -0.1478076   0.2144646  -0.2014057
   0.0976145   0.0200582  -0.0018346   0.0679104  -0.1778568   0.6696328
  -0.1887524   0.0535920  -0.0730763   0.2761518  -0.0346494   0.9823312
  -0.6965963  -0.0277295  -0.5434367  -0.2177960   0.2114024  -0.1022847
  -0.9145823   0.2445599   0.5580810  -0.9389000  -0.4640397  -0.0422502
  -0.2844938  -0.0764552  -0.1031132   0.1314375   0.0201286   1.1303184
  -0.9294107   0.9481920   1.4682147  -0.4308751  -0.2790136   0.1809129
  -0.5020112   0.1290660  -0.6272333  -0.3984322  -0.7307842  -1.0527526
  -0.1309526  -0.3562944   0.1239371   1.1838160  -1.2942866  -0.6340387
   0.1728630   0.7568821  -0.4783011   0.0263158   0.0976705  -0.3595246
  -0.0179339  -1.2296653   1.6856333  -0.5830274  -0.0837484   0.4855028
  -0.0672020  -0.0133296   0.0901843   0.2789854  -1.0965514  -0.7364260
   1.8591092  -0.5096582   1.0998514  -0.0117872  -0.2877629   0.1335280
   0.3077743   1.3815589  -0.4306463  -0.0731013   0.1609971   0.4438716
  -0.1514655   0.1702404  -0.1171538  -0.2570745  -0.2432516   0.8592027
   0.2417117   0.4850867  -0.3553443  -0.1052663   0.1453802  -0.3807347
  -0.6708424  -0.3229459  -0.2373363   0.7163852  -0.6260781  -0.4494954
   0.0085231  -0.0799486  -0.0675683  -1.4893118   0.7079777  -1.8188411
   0.5666021  -0.6178744  -0.3858772  -0.0278555   0.1603435   0.0283213
   0.9782170  -0.2318956  -1.2811316  -0.5800406  -0.3588526   1.0422164
   0.0794864   0.1722282  -0.2832254  -1.1822442   1.1809961  -0.4510506
  -0.3325467   0.0675014   0.0353418   0.0209240   0.1088246   0.4324492
  -0.8104273  -0.2746555   1.4888568   0.7237247   0.6135157  -0.1180022
   0.1767968  -0.1712630   0.1608574   0.5964315   1.5456722  -0.3555560
  -0.3759644   0.0888798  -0.5589268  -0.1949435  -0.3989284  -0.0149311
   0.6226980  -0.1327592  -0.1704241   1.6554252   2.0928701   0.9405803
  -0.1482912  -0.1425729   0.1245413   0.4853663  -1.3461518  -0.9204658
  -0.5608075  -0.8874762   0.7088664   0.0845528   0.3839016   0.3308622
   0.7774645  -1.5635207  -0.4498054   0.7361815   0.2665673  -0.1306710
   0.0817119  -0.2384058  -0.0754056   0.2996286  -0.9491716   0.4701808
   0.1558655  -0.7127412   0.3384925  -0.1419302   0.3173882   0.1573517
  -0.5058946   0.3310608  -0.4473776   1.0191812  -0.1751602  -0.4754301
   0.1012423   0.1850494  -0.1611026  -1.0385929  -1.6130633   0.4146411
  -1.0611128   0.3209118   0.7990412   0.0292702  -0.0604616  -0.0037666
  -1.0525590   0.0780170  -0.7448504   0.5259420  -1.0385317   0.4353394
   0.3241916  -0.0071021  -0.0619166   0.9110817  -1.0822679  -0.1062117
  -0.3626593  -0.4120275   1.1116853   0.1617958  -0.4571485   0.4152685
   0.4454424   0.6704674  -2.2883053  -0.3756733   0.2400817   1.1658671
   0.1340844   0.0468594  -0.0206522   0.9581641  -1.9896582  -0.6291934
   0.2951104   0.2435634  -0.0961995   0.0421344  -0.0132263   0.2699275
  -1.7643257   1.1744629  -0.6550421   0.0294283   0.0000661   0.0356540
  -0.0662912   0.0470939   0.2860430  -0.0134207   0.7143018  -0.8084212
   0.2332193   0.2891702  -0.0917938   0.2661957  -0.0953630  -0.3011056
  -0.9188916   0.4834713  -0.4156073  -0.0524712  -0.2547188   0.5141164
   0.2151072  -0.0337916   0.2483458  -1.6365219  -0.7847778   0.6022868
   0.6065984  -0.0152041  -0.2208172  -0.2098744  -0.3178686   0.0891268
   0.1498706  -0.0443972  -0.0834953   0.8865607   0.9473747  -0.0084685
   0.1905302   0.3804718  -0.0702088  -0.7778618   1.9778328   1.0481042
   0.1598711  -0.2237952  -0.3749038  -0.0494060  -0.1332546   0.0530901
  -0.4092386   0.0562490   1.0162516  -0.2767573  -0.1209328  -0.5649455
   0.1135957   0.1309252   0.0987431  -0.6380416   0.9003895   0.4438876
  -1.7888321  -0.8130433   0.0743746   0.0239100   0.1419815   0.2782688
  -0.1570978  -0.5599667   1.1980701  -0.0103842  -0.8962107   0.4604558
   0.0337620  -0.2465615  -0.0861284   0.4445487   0.7555729  -0.4890809
   0.2989213   1.1249593   0.5728103  -0.1657698  -0.1343298   0.1413847
   0.5324834   1.4143151   0.5077793  -0.1334210   0.5752309   0.2733643
   0.1184802  -0.2494332  -0.1941891   0.3733945  -0.3502151  -0.2350989
   0.3944345   0.6355813  -0.3750757   0.0239013   0.1410120   0.1386495
  -0.5662902  -1.0288932   0.1449087   0.1002383   1.6319377  -0.4157655
   0.0181470   0.0705864  -0.2985227  -0.5243528  -0.0342781   0.7324443
  -2.0141528   0.2076406   0.2543268  -0.1621454  -0.0542725   0.2596305
  -0.3830275  -1.0391448  -0.5492809   1.2752877  -1.7902743  -0.0916644
   0.2506423  -0.1252677   0.2388132  -1.0921323   0.0985631   0.4122297
  -0.2734529   0.4069387  -0.8789800   0.2861923   0.1459477  -0.0374484
  -0.5712029  -0.4021611   0.9308324  -0.9167908  -0.1652593  -1.2607339
  -0.0903257   0.0860373   0.0800027   0.3035368  -0.2250645   0.2000956
   0.7406385  -0.3698602   0.8883917   0.1490422  -0.0896871   0.3407755
   0.0906423  -0.1684478   0.2871670  -1.5660460  -0.3023707   1.0090139
   0.2226027   0.1869351   0.3295050  -0.7604664  -0.6486079   1.2995254
   0.5970574  -1.3491109  -1.3859308  -0.1374118  -0.2576382   0.3257083
  -0.0598364  -0.3320207   1.6909186  -1.1332109  -0.4251597  -0.4545821
   0.5258610  -0.2439087  -0.3598917  -0.7962339   0.5118953  -0.6744953
  -2.1373345   0.9237264  -0.1794802  -0.2661002  -0.0063751   0.2444718
   0.3848229   0.0071630  -0.6708807  -0.8978782  -1.0662542  -0.0586329
  -0.1594633  -0.1852581   0.3437929  -0.2487747   1.1995863  -0.7363095
   0.3142681   0.2370380   0.9652932  -0.4820528   0.0928960   0.0564593
  -0.5028141   0.3633386   0.2239474  -0.3653674  -1.7226689   0.9308930
   0.1388779   0.2946545   0.1919445   0.3537950   0.9096993  -0.5286401
   0.0932442   0.4457634  -1.1482004   0.3231675   0.0803530   0.2869742
   1.1821641   0.2970017   0.0363579  -0.3742035   0.9905522   0.5181919
   0.0439368  -0.3458596   0.0519307  -1.3364720  -0.2080792  -0.5077217
   0.3053295  -0.4818132   0.0860592   0.2430788   0.0900163   0.0416387
  -0.8660316  -1.8540940   0.6326706  -0.3002540  -1.3799775  -0.6983804
   0.2078327   0.1631356  -0.0587795  -0.2095006   0.3987164   1.6558612
  -0.7612520   1.7345060  -1.4633687   0.1758117  -0.0413604   0.1638977
   0.4347840   1.4105653  -2.6009369   0.0773488   1.1501308  -0.3997719
  -0.0087037   0.2336411   0.1779898   0.7030234   1.6817695   0.1437771
  -0.7210936   0.0548360   1.2059206   0.1147701   0.0581797   0.2647420
   0.4021595   0.2726626  -0.7711070   1.0446944   0.0531584  -0.5809059
  -0.1783484   0.0934968   0.2518756  -0.2138751  -0.3650923   0.8318403
   0.2735749   0.2587288   0.5688477   0.1553024  -0.0861088   0.2991326
  -0.1296949  -1.1302839  -1.0385370  -0.8093027   0.7124517  -0.4402226
   0.2042871   0.1124786   0.0890209  -0.3489728   0.6598942   0.3610095
   0.4486756   0.4703909  -0.9324543  -0.1015156  -0.0700796   0.0854049
  -0.1778032  -1.4541785  -0.4478013   0.7068115  -1.1883645  -0.4503040
   0.2943958  -0.0096985   0.4075576   0.1521414   0.3014228  -0.6311611
  -0.1795855  -0.9103580   0.2921449  -0.0823742  -0.1637842  -0.1548464
  -1.3743963  -1.7845989   1.0214886   0.4138094  -0.4215543  -0.3314381
  -0.1013911  -0.1262028  -0.1291193   0.6505660   0.9024347   0.6304067
  -0.5939098   1.1626299  -0.2891725   0.0710390   0.5524853  -0.3181733
   0.9210410  -0.6139686  -1.4915104  -0.3610119   1.3929694  -0.3615321
  -0.0433387   0.2567895  -0.2137751   0.7711341   1.3649812   0.3338352
   0.2733347   0.5563439  -1.1670922  -0.1157867   0.3301690  -0.0196846
  -0.5155811  -0.4984781   1.3040324   0.2520420  -0.2018350  -0.1714646
  -0.0347473  -0.0903280   0.3792579  -1.2293805  -0.7993056   0.7862475
  -1.0815558   0.5550779   1.7482918   0.2587276  -0.0676035  -0.0216273
  -0.3177361   0.6267860   0.8203247   0.0433273  -0.7966375  -0.3483887
   0.1045589   0.3437955   0.0907282   1.4772517   0.6675952   1.1255001
   0.2285139  -0.4749697   0.0719406   0.2916479  -0.0814212   0.3606277
  -0.6172437  -0.4418238   0.2315209  -0.3448964   1.8724369   1.1998629
   0.1783076   0.0318593  -0.1684794  -0.3451973   0.3337531  -0.1272058
   1.1568833   1.1773705   0.0460254  -0.2605241   0.0391295   0.1291493
   0.0383547  -0.5710966   0.4176799  -0.1844016   1.1374763  -1.4815293
  -0.1392260  -0.0623133   0.1585821   0.1839547  -0.6073400   1.0699035
  -0.2424489   0.9707083  -0.5448389  -0.0229989   0.4967764   0.0194016
   0.3171328   0.9756564  -0.0264275  -0.8214670   1.1430478   1.8468238
  -0.0003919  -0.0976227  -0.0009007   0.3691105   0.9410315   0.2745519
   0.7643417  -0.1505789  -0.9486062   0.0260106   0.0127173   0.1655804
   0.8353988  -0.6470565   0.2006565   0.2932229   0.6868066   0.5231519
   0.1049850   0.0849426   0.0436685   1.1024145   0.5149509  -0.3195994
  -0.6148459  -0.5394315   1.1007751  -0.1132530  -0.3184503  -0.2434278
  -1.8055204   0.6886315   0.0688615  -0.6347586   0.9634285   0.0514802
  -0.2010196  -0.0799432   0.1498820   0.2386617  -0.4643291  -0.9929777
  -0.3082525   0.8519673   0.5576688   0.1341274  -0.0244995   0.1246011
  -0.4279950   1.3381408   0.5721673  -0.4174087   0.0444242   0.8314932
  -0.0202239   0.4521441  -0.0418781  -0.6064468   0.9685569   0.3589353
  -0.1136592   1.3888258  -1.1865939   0.1486040  -0.0646307  -0.0850515
   0.8835258  -0.2126373  -0.5978037  -2.3972188   0.5579469  -0.2630080
  -0.0407590  -0.2616398   0.4100096   1.0397387  -0.6315613   0.0207360
  -0.2085392  -1.4158806  -0.3432078   0.3536175  -0.0646283   0.2581633
  -0.5503386   0.6950757   0.2773796   0.5229668  -1.3620743   1.0903738
  -0.0245997   0.0056608  -0.1032433  -0.9254583  -0.8138443  -0.3463116
  -0.2561965  -0.4844403   0.0879343  -0.0951927  -0.0031839   0.1752438
  -0.0938488  -0.9534201  -0.5409214  -0.1422617   0.6194608  -1.7090733
   0.3839833   0.4306015   0.0365297   0.7741685   0.3280551   0.8775469
   0.2758430   0.1000896  -1.6467758  -0.0451507  -0.2551092  -0.0146113
  -1.8958182   0.7599075   1.4127963  -0.2606378   0.9268707   0.3652655
   0.2448493  -0.1209261  -0.1024393   0.8606779  -0.7169035  -0.6471753
  -1.1023661   1.4558506   0.8104940   0.3193391  -0.0015273  -0.1070979
   1.5692217   1.0286712   1.0518167   1.2205512   0.0149211   1.1362891
   0.1312725   0.1180811   0.0921268   0.7811383  -1.6901666   0.2868928
   0.4541980  -0.3160215  -0.1217805  -0.3144462   0.0288284   0.1367791
   0.4278174   0.0854661   0.1764193  -0.0314152  -0.6425777  -0.9760920
   0.1642755   0.1845912   0.2977238   0.8383090  -0.3287185  -1.0489925
  -1.5362580   0.8263448   0.7412756  -0.0158348  -0.2715942   0.1012340
  -0.4642442   0.3517614  -0.2881304  -0.7435893   0.7711794  -1.2513333
   0.0679563  -0.0159896  -0.0985555   0.5654886   0.4724986   0.9887543
   0.4524050  -0.2149188   0.4319813   0.2656609  -0.1221795  -0.1457669
   1.1991626  -0.1018733   1.0127405   0.0921267   0.2840350  -0.3459447
   0.1730459  -0.2619195  -0.3235001   0.5712089  -0.5888914  -1.9744331
   0.5090506   0.7171655   0.4343915  -0.0808223  -0.0072320   0.0729769
   0.2738468  -0.5407106  -0.8419526  -0.8135380   0.5214195   0.1933178
   0.0422318   0.1446740  -0.0611762  -0.2002035  -0.6864287  -0.8781409
   1.4337561   0.5581415   0.6791696   0.1296808   0.0507729   0.0534404
   1.5382903  -0.9363711  -0.2269863   0.6190522  -0.5639757   0.2541893
   0.0596149   0.1226628   0.1387758  -0.1492266   0.0074960   0.1995985
   0.4526476  -1.4220110   0.4684997  -0.1626626  -0.1076177  -0.0011946
  -0.8647805   0.1738963   1.0548517  -2.1718244  -1.0732777  -0.1144405
  -0.3505551  -0.0392075   0.1196004   0.0150698   1.0861047  -0.4802332
   0.2197260   0.5568938  -0.3014102   0.0936963   0.0803972  -0.0521942
  -0.5273566  -1.0894521   0.6130057  -1.1070460   0.2925494  -0.4884189
   0.1264790   0.1260651  -0.0378820  -0.6792524   0.6172685  -0.1063240
   0.7952264   0.4521488   1.7358424   0.1184323   0.0687158   0.0900275
  -1.6760053  -0.9245985  -0.9998404   0.8092654  -0.4830604  -1.8351367
  -0.0399516  -0.1304909  -0.1620352  -1.8018990  -0.6264647  -0.2886944
  -0.1860709   0.1902918  -1.8232953  -0.0113372  -0.0017439   0.3041667
  -1.3756804   1.4444950   0.0948365  -0.2912362  -0.3645888  -0.4188275
  -0.0929966   0.3192693  -0.1017182   1.4653381   0.1123498  -0.0108571
  -0.3311708  -0.4268186   0.4473300  -0.0369595   0.0751261   0.0672993
   0.1624067  -0.5419704   0.2525030  -1.0070090  -0.0140861  -0.4534512
   0.1127882   0.0125718  -0.0831890  -0.2617505   0.3822717   0.1807902
  -0.3617785   0.3436182   0.5957558  -0.0998617   0.0802249   0.1750217
  -0.9462085   0.4024841  -0.5613950   2.6725897  -0.8114864  -0.0347450
   0.1822682  -0.1171531  -0.2155200   0.4898088   0.3218716  -0.8599828
  -0.4015265   0.6244505   2.0981613   0.0262056   0.1637409  -0.2296797
  -1.7030100   1.2989848   0.5381987  -0.8592934   0.8552667   0.2019943
  -0.0062819  -0.1701212   0.2507698   0.7460374   1.0272920  -0.2871366
   0.2324608   0.6530830  -0.1800124   0.0985806  -0.2031603   0.1862686
   0.6324353   0.9644230  -0.1733367  -0.4054277   0.0307136   0.2078115
  -0.0160605   0.2715429   0.1645089   0.4218145   0.0531691  -0.7719680
   0.0033279  -0.1619407   0.6443859  -0.0006927   0.0048609  -0.0204888
  -0.1815963  -0.6601089  -0.5054151   0.1518227   1.5664408   1.0555625
   0.3552235  -0.4578454  -0.0527924  -0.8110925   0.6411313  -0.7754442
   0.8026706  -0.1170006   0.6825841   0.0736984   0.0609512  -0.1372894
   0.3868623  -0.4374887  -0.9060108  -0.0181660  -0.8221035   0.7209867
   0.1053569   0.0869712  -0.0542538   0.4916813   0.1134833  -0.1304321
  -0.2238810  -0.0900138   0.8768989  -0.0936982  -0.1266081   0.0254039
  -0.9388059  -0.3514423  -0.4743321  -0.0144240   0.4728874   0.3031119
  -0.0576811  -0.0495946  -0.1257025  -0.8825956  -1.1405221   0.9062874
   0.3626575   0.3972535   0.2566159  -0.2615982   0.1221014  -0.1384669
  -0.3546989  -0.2342793  -0.8699856  -0.9123177   1.2969145   0.2196798
  -0.0427645   0.1532003   0.2669001   1.6108373   0.2333502   1.2655134
   0.7930483   0.1897447   0.3633512   0.0470462  -0.0613325  -0.0172767
   0.3026662   0.1777144   0.4104273  -0.2576817   0.8018728  -0.4684548
   0.1199342  -0.0847385  -0.1655244   1.5838538  -0.2233831  -0.6215820
   0.1747549  -0.0432836   0.7273601   0.3904675   0.2052179  -0.0873933
  -0.5951331  -1.1583146   0.2150891  -0.2419299   0.3398139   0.7767397
   0.0981350  -0.0948718  -0.2330891   0.8660302   0.3483039  -0.3162096
   0.7810628   1.0447304  -0.3742577   0.3560610  -0.0866429   0.1537547
  -0.0425318  -0.0569921  -0.5452184   0.9224491   0.0223291  -0.1044084
   0.1572538   0.1225347  -0.2291187  -0.4366961   0.7152389  -0.8690585
  -0.6601359  -0.6901231  -0.3355954   0.1399593  -0.0915054   0.4643616
   0.0189446  -0.6645915   1.6787771   0.1625031   0.3899042   0.0846654
  -0.0991956  -0.0190660   0.0703320  -0.4620888  -1.3495843  -0.8450528
   0.0703372  -1.0379849  -0.6580718  -0.2114732  -0.0987563   0.2130667
   0.7029224   0.8525643   0.3050973   0.1597698   0.6356048  -0.3514047
  -0.0855776   0.3062918   0.1396551   0.0036200   0.3462257  -0.7757843
  -0.3006010  -0.0335530  -0.0898901  -0.0918243  -0.1068533   0.1827949
  -1.5985879  -0.1311424   1.1265190   1.5216599  -0.3884983  -1.0400033
   0.2683993   0.3431279  -0.1411887  -0.0620573  -0.2811352  -1.5671257
  -0.0462785   0.6306203   0.1112480  -0.0428748  -0.1325561   0.0732027
  -0.6781499   0.5283511  -1.4093502  -0.6015476   0.2069513  -0.4843261
  -0.3684026   0.0426577   0.3781528  -0.6560136   0.4957635  -0.7960395
   1.3848166  -0.7955504   0.5864211  -0.1440632   0.1240591   0.2086838
  -1.0690349   0.3181456  -0.2903094  -0.7750991  -0.3104239   0.0961024
  -0.1315875   0.2731114   0.0778011   0.1703915   0.3274535   0.2467800
  -0.3268229  -0.6223371  -0.1738125  -0.0689364   0.1595884   0.2974432
  -0.0122640  -0.5374177   0.9144800   0.1913449   0.2741367   0.0390626
   0.0358537  -0.2243209  -0.3231747   0.4129676   0.4799649   0.0120948
  -0.2155365  -0.4042454  -0.6500788   0.2279996  -0.0350451   0.1709269
  -0.6026317   0.7429088  -1.9558729   0.0004893  -1.3570722   1.1326204
  -0.0286882  -0.2249377  -0.0244720  -0.6266142  -0.2304477   0.1476840
   0.1905444   0.2886972   0.2474934   0.0292684   0.0240772   0.1194423
   1.3362589  -1.8894778  -0.6439865  -0.8920331   0.4639624   0.2855965
   0.2380099  -0.4845882  -0.1198296  -0.8867261  -0.4450754  -0.3102083
   0.2608800  -0.1196366  -0.0951140  -0.1030514  -0.2351405  -0.1430446
  -1.0472526  -0.0381156   0.6688289  -0.6457127  -0.4487984  -0.4356902
  -0.1341557  -0.2124232   0.0711964  -1.3223647  -0.2505986   0.0454861
  -0.0253013  -0.7308626  -1.5165143  -0.1309475   0.0988694  -0.0059654
   0.0937867   0.6606638   0.1219204  -0.0076391   0.8428920  -0.5820513
  -0.1197789   0.0198616  -0.0320159  -0.4406290  -1.6812855  -0.0221617
   0.5916228   0.6981583   0.6131028   0.1254101  -0.0544606  -0.0665438
  -0.2287662   0.3586307   0.3656324   0.9137348   1.7114607   0.2461479
   0.0703630   0.1894471   0.0305512   1.4913905  -0.9674147   0.5686491
   0.6843733  -0.1490309   0.9041697   0.1331941  -0.0248079  -0.0842058
   0.4329658   0.5262935  -0.0810675   0.0310895   0.1589873   0.1320567
  -0.1920673   0.0690574  -0.1926090   0.6204354  -0.1615130   0.4051685
   0.2201865  -1.8257438  -0.4257449   0.2626239   0.0830219   0.1027378
   0.0565228  -1.1945595   0.0803269   0.2729228   0.3520287  -1.5281221
   0.3643923  -0.2431132   0.2701375  -0.7103756  -1.5046040  -0.9332197
  -0.3333664   0.4966889  -0.1370929  -0.1588309   0.2752908  -0.2761673
   0.8191500   0.9324224   1.3833219   0.7575503   0.0495970   0.6977479
   0.0719768  -0.0191652   0.0062092  -1.6817093   0.2813684   0.2593048
  -0.3497307  -0.4847122   0.2094225   0.1772720  -0.0008331   0.1432929
   0.7968094  -0.5644398   0.5622833   0.0246794   0.7416919   0.6871969
   0.3467215   0.1373404  -0.2608417  -0.2129477   1.1698532  -0.2538886
   1.1193654   0.5809999   0.1588597   0.0909835  -0.1903006   0.1966847
   0.0871887   1.0097295   0.1491696  -0.4746817   0.2405324  -0.4518632
  -0.0222837  -0.1028194   0.4906642   0.5024964   0.0331578  -0.2162964
  -0.3296983   0.4384429  -1.2000016  -0.1015856   0.0208048   0.3502705
   0.0434810  -0.4168935  -0.0803049   0.0152476   0.6448997   0.9474823
   0.0509529  -0.0204039  -0.1872865   0.4798466   1.1653952   0.4718097
   0.1372635  -0.3770884   0.6486372   0.2230632  -0.1535372  -0.2128191
   0.5814668  -1.4687055   0.1527873  -0.0369651  -0.5764434  -0.9164163
   0.0980923  -0.2559150  -0.2770262   0.2623444   0.6160031  -1.4434171
   0.2620921   1.5411324   0.3363013  -0.4317893  -0.3600031   0.1111047
  -1.2648338   1.1047334   0.7534940   0.1727336  -0.4567085  -0.6963550
   0.1051528   0.0956936  -0.2453809  -0.8401848   0.0381838   0.8438891
   0.3586159  -0.2622595  -0.9323881   0.2350340  -0.0489936   0.0827280
   0.2826749  -0.2518908   0.0245029   1.3890163   0.2426703  -0.3288007
  -0.1008114  -0.2430808  -0.0206270  -0.4555882   0.0186037  -0.0602874
   0.7082700  -0.9482677  -0.0452301   0.1080244  -0.1550165   0.1256437
   0.1367344  -0.9032674  -0.5012899  -0.6583623  -0.1233198  -0.1588937
  -0.2770725  -0.1570337   0.0021385   0.4129010  -0.3892241   0.0887998
   0.5903944  -0.3503044   0.2606259  -0.2623179   0.0452101   0.0160479
  -0.5283707   0.9501781   1.2158958  -1.7892010  -1.9015046  -1.0037015
  -0.0673491  -0.1514486   0.2081331   0.9136258  -0.6513525  -0.2289601
  -0.3099743  -1.2106774   0.1297915  -0.1378251   0.0508330  -0.1139145
   0.6225416  -0.4038622   0.0572076  -0.5085134  -0.3649366  -0.3114630
   0.2872618  -0.1029627   0.0206958  -0.0889729  -0.0030658  -0.5269119
   0.5758980  -0.2263055  -0.8296366   0.0717171   0.0617369  -0.0622964
  -1.1613032  -0.7461218   1.5342358  -0.7283349  -0.5921719  -0.2745569
   0.3021983   0.1013453   0.0241520   0.8064631   1.1748464  -1.4381093
  -0.8336528  -0.6090838  -0.0331891   0.2265738   0.2663188  -0.1658938
   0.2803637   1.5809113  -0.4472058   0.2522430  -1.1550622   0.4480283
  -0.1506363   0.1666589  -0.3186496  -0.9138483   0.1015523   0.5241542
   0.2177078  -0.1804050   0.1176696  -0.1706868  -0.1225161  -0.0600650
  -0.3376165  -0.0401236  -1.2435211  -0.0035748   0.1059425   1.0468928
  -0.1723036   0.1043777   0.2341859   0.9518712   0.2089640  -0.3330209
  -1.4126297   2.8920878   0.2784101  -0.0239548  -0.1142039   0.0755104
   0.3854986   0.5082510  -0.3907247   0.2661136  -0.6526114   0.3561935
  -0.1254100  -0.1425832  -0.1448533  -1.1874291   0.1882739  -0.3396965
  -0.2460865   0.1207341  -0.5133476  -0.2660978  -0.0167833   0.1046446
  -0.0356256  -0.5253906  -0.0082108   0.9332135   0.1049859  -0.2886686
   0.1603857   0.0576425   0.0288675   0.1157886  -0.4814433   0.7799093
   1.0603144   0.3042714   1.0409440  -0.2374695   0.1198990   0.0577265
  -0.9063740  -0.7845777  -0.5375053   1.1564538   1.8774492   0.7739942
   0.1279781  -0.0169379   0.0437435   1.0397677   0.0753458  -0.6086492
  -1.0996300   0.8273461   0.4431559   0.2384452   0.0475013   0.2054364
   0.1497131  -2.2105837   1.0959355   0.3444154  -0.8965524   0.4970612
  -0.3151033   0.2285842   0.0999976   0.2914844  -0.3860511  -0.7194265
  -0.4433638  -0.0654435   0.2658315   0.0731375  -0.0742545   0.1835668
   1.8936461   0.2354843   0.2050679  -0.5332118  -1.0755189   0.4521491
   0.1718135  -0.1459155  -0.0057198  -0.3278145   0.3711007  -0.1249898
   1.5972848   0.4186765  -0.0555525  -0.1179296   0.0764506   0.0445997
   1.5718373   1.1331685  -0.0959109  -0.3348500  -0.5587529  -0.5752540
   0.2073140  -0.1789469  -0.0989488   0.7424127  -0.7720420  -1.4963567
   0.2949603   0.8205119  -0.8408387  -0.0822676  -0.0077028  -0.2067814
   1.2302282  -0.8576663   0.6387933  -0.9601298  -0.1682327   0.7967430
   0.0320012  -0.1635269  -0.0567416   1.0992411  -1.0506469   0.3019218
   0.1403662  -1.4699335   1.2044371  -0.2128458   0.0266289  -0.2450506
   0.1395068  -0.7099570   0.5687803   0.9704571  -0.5288493  -0.1507069
   0.0712711  -0.0058467  -0.0957040  -0.7687116  -0.7232881   0.5244795
   1.0563891   1.2055705  -0.7038228   0.1697171   0.1112621  -0.0392184
   0.6221036  -0.1922576  -0.2319136   1.0227336   0.2259948  -0.8463707
   0.0688867  -0.1514208  -0.3175087  -0.8772420   0.4304730   0.7692506
   0.7833110   0.4062481   0.2483447   0.1309590  -0.0956809   0.1756627
  -1.7926148   0.4441912   1.2906212  -0.7662492   0.7331510   0.5980041
  -0.2091378   0.2408450  -0.2031265  -0.6131888  -0.4486185  -0.1634628
  -0.7814975   0.4365043  -0.0320681  -0.3387790   0.0460148  -0.2970082
   1.6743819  -2.0481515   1.5247660   1.4383809   1.2432240  -0.4327162
   0.0894031  -0.0924302   0.1198189   0.8041181   0.7445550  -1.1266168
   0.6893589  -0.1661468  -1.0381532  -0.1515760  -0.0985207  -0.0947283
  -0.1385808  -0.0424434  -0.4399258   1.2179436  -0.7673014  -1.2430292
   0.0844529   0.0218545   0.1141470  -0.3072035  -0.8416647   0.6079449
  -0.1398755  -1.2770460   0.5588448  -0.1431005   0.0288824   0.0510338
   0.5240030  -0.2796966  -0.5876936   0.4842220   0.1467513  -0.9940326
   0.1467371  -0.0441031   0.1690626  -0.9477998   0.1482374   1.4072425
  -0.0975208  -0.0405878  -0.3166695  -0.2651152   0.0805091  -0.2552171
   0.2361982  -0.1462080   0.6418931  -0.1674923   0.2599716   0.1612404
   0.0829770   0.2150815  -0.1797622   1.8023944  -0.5362765  -0.6782842
  -0.1624028  -1.1543484   1.2117971   0.1988563  -0.0722016  -0.0058585
   0.5234773   0.4172201   0.2128120   0.1917422   0.1315330   0.6685791
   0.2003822  -0.0290047   0.1014459   0.7625524   0.0680574   0.4711542
   0.9215680   0.4919025  -0.3623842   0.1758280  -0.2564309   0.1871418
  -0.0575974  -0.2390937  -0.2258556  -0.7194203  -0.3404849  -0.5262240
   0.0294449  -0.1784402   0.1664852   0.4952700   0.2919000  -0.8200492
   0.9488706  -0.7001895   0.7578943  -0.1691918   0.2845377   0.2010929
   0.1508499  -0.4557551  -0.3732861   1.3300788   0.6562356  -0.7541826
   0.0105821  -0.3403691   0.1398796  -0.4899344  -0.2609142   0.0474535
  -0.5405442   1.2062598  -0.7479313  -0.0093118   0.1536858   0.2655077
   0.9930143   0.6943107  -0.0940074   0.1639702  -0.3335571   0.8064608
   0.3003268  -0.0583904   0.1821413  -0.4672108   0.2045607   0.2083827
  -0.4906784  -0.5578912  -0.7029212   0.1863672  -0.4701811   0.4922190
   0.4635791   0.5464585   0.2864483  -0.4773339   1.0333726  -0.5561321
   0.1805695   0.0509002   0.0127611   0.0474385  -0.1563104  -0.3297800
  -0.1791333  -1.5636173   0.1354594  -0.0360344  -0.0022340   0.1536810
  -1.0027690  -0.3357511  -0.0584515   0.3085809   0.0948845   0.4839205
  -0.1624938  -0.1739534   0.3094521   1.5193152   0.6345654   0.4589168
   0.5999628  -1.0047118   0.9822394   0.1672846  -0.1834011   0.0812465
   0.2170291   0.5029007  -0.4821906  -0.7036373  -0.0026259  -0.1599044
  -0.1186110   0.0677637  -0.1772594   0.0304904  -0.5098882   1.0937282
  -0.8365199  -0.4974533  -0.9070248   0.0711742  -0.1359903  -0.1572584
  -0.4821409   0.7443604   0.2091785  -0.6373357  -1.1784459  -0.2623561
   0.1059313  -0.2900640   0.3097499  -1.1675446  -0.6346704   0.7088541
  -1.2705820  -1.0053341  -0.9841266   0.1207710  -0.1007344   0.1517703
   0.6414538  -0.2633406  -0.9745282  -0.8304713   1.3026441  -0.0010807
  -0.0327482  -0.0784333   0.2425803   0.6992643   1.4575023   1.3373803
   0.2168437   0.6923977   1.2196817   0.2258053  -0.3214291   0.0346219
  -0.7271994   0.2084926   0.4504106  -0.5145961   0.0980651   1.1054520
   0.0702125  -0.0311187  -0.3420601   0.5303917   1.3579786   0.4689667
  -2.1789237   0.5024713  -1.5282986   0.0700747  -0.2304281   0.3026217
  -0.9067896   0.9680465   1.2629563  -0.9337272   0.3707020   0.2451247
   0.0382377  -0.3091330  -0.3760820   1.3851196  -0.8092879  -0.8639929
   0.8928365   0.2891937  -1.2452790  -0.0668534  -0.1091072   0.0573438
  -0.0171194   0.9145435   0.3150773  -0.8610350  -0.1407555   0.4951555
  -0.0630788  -0.2741404  -0.4614876  -0.5846388   1.0790812  -0.8666015
  -0.2901842  -0.6459342  -0.3860928   0.1532700  -0.0821335   0.1286555
   0.2536097   0.2352759   0.8011162   0.9699334   1.2783279   0.3958125
   0.4556168   0.1350573   0.2077418  -1.3966970  -0.9796612  -0.4960375
  -0.6470004   0.1154219   0.5353625  -0.2317067   0.0817149   0.1728265
   1.8536817   0.2793227   0.6620084  -0.0192202  -0.7594866   1.1236813
  -0.0567294   0.0161360  -0.1494417   0.3653592  -0.9856982  -0.4547923
  -2.6450895   0.3357830   0.6181865  -0.1679684   0.0149828  -0.1580057
  -1.2014321   0.0293611  -1.8394001  -0.2308080  -1.5921343  -0.3454737
   0.0076661  -0.0631588  -0.4058318  -0.0547714  -0.5599954  -0.3186030
  -0.2101044  -0.6720294  -0.1193000  -0.0746822   0.1629488   0.0804442
  -0.5291840  -0.1975031  -0.0540379   0.8219197   1.3693658  -0.6980329
  -0.2582480   0.1891611   0.0889084  -0.2458538  -0.2930259  -1.1935487
  -1.2033212  -0.1399451  -0.1229016  -0.2303976   0.0723410  -0.1608789
   0.0161199   0.3953937   0.4098561  -0.1551754   0.2840269   0.2207608
  -0.0324504  -0.2634926   0.0730975   0.8413268   0.1478842  -0.9997393
   1.0143249  -0.6659139  -0.5588167   0.2557801  -0.0570384   0.1862040
  -0.5632605  -0.1203421  -0.9103563  -1.4994791   0.6031203   1.0418040
  -0.0479516  -0.0145843   0.2254286  -0.3308922   0.8196232   0.1066184
   0.1358187  -0.0969018   1.0235399  -0.2101550  -0.0686625   0.0199580
  -0.1945901  -1.2204146  -0.7421775  -0.1258015   1.0122645  -0.3706387
  -0.0324270   0.1241843  -0.1502509  -0.0720446  -0.0089624   0.8127054
   1.1605157   0.0085898  -0.0023368   0.3924225   0.1383513  -0.0776000
  -0.4915491  -0.1936504   1.1014000   0.5381075   0.4978368  -0.4433679
   0.2436385  -0.1919134  -0.0454367   0.2042808   0.3207489  -0.1006680
   0.2709200   0.8169060  -1.6532890  -0.0299916  -0.0527636  -0.0678465
   0.9773044   0.5536373   0.9699649  -0.8219049  -1.2418569  -0.4276814
  -0.1906789  -0.0364333   0.0332322   0.1501344  -0.8170158   0.9158149
   0.0995933  -0.7124578   0.3364124   0.0160897   0.2915155   0.1622266
  -1.5305284  -1.1377111  -1.1067063   0.4255420   1.0053759   0.2391028
   0.1963226   0.2017290  -0.1297495  -0.6634078  -0.6656916   1.0736660
  -1.0333176   0.9590666  -1.1144003  -0.4400631  -0.1697584   0.0717385
  -0.3125979  -0.2000805   1.8500545   0.2464616   0.6570274   0.4464089
   0.0560596  -0.0605543  -0.2123793   0.5662321  -0.5845546   2.1638790
  -1.2069531  -0.6011527  -1.2125460   0.0408937   0.0646317  -0.2077627
   0.7266752   0.5444119   1.2801918  -0.4766603  -0.3690682  -1.1715872
  -0.0913941  -0.3027385   0.3656534   0.2861297   0.0648226   0.8695884
  -0.3094932   1.3831510   1.6142919  -0.1513887  -0.1421562  -0.0964460
  -0.7726724   0.5030021  -0.0724427   0.7816827  -0.6638672  -1.1271422
  -0.1940430  -0.2115894   0.1427053  -0.1018331  -0.9357617  -0.9370481
   0.0651815  -0.4885381   0.5006330   0.0168111  -0.2799315   0.0534212
  -0.2200094   0.2607596   0.7806342  -0.3140145   1.1074404  -0.3640427
   0.2173806   0.2044833  -0.5052375  -0.2450499   1.4933094   1.0392573
   1.4297752  -1.0401696   0.6823156   0.0846070   0.0522850   0.1069638
  -0.5962893  -1.0426716  -0.6851537   0.5626410  -0.7513230  -0.0148610
   0.1977540   0.1902660   0.2366635   1.3241492  -1.2426097   0.6926910
  -1.5697679  -0.3882216  -1.6145518   0.0072403   0.1217658  -0.1814435
   0.3090329   0.3775933  -1.3730165   0.0067316  -0.5314088  -0.0139609
  -0.0175598   0.2297803  -0.4288865   1.1077101   0.9887619  -0.3143413
   1.0437032   1.0855897   1.2678590   0.3778853  -0.0423297  -0.4340040
  -0.1761377  -0.9567292  -0.6526374  -0.7467653   1.0963410  -0.3863301
  -0.0791142   0.1953823   0.2347523  -0.5234580   0.3554631  -0.7432648
  -0.4512608   0.5838200  -0.4706796  -0.3461397   0.0018970  -0.2622676
   1.2240602   0.0245366   0.2718211   0.2206869   0.0768988  -0.5261920
   0.0597919   0.2024330  -0.2514682  -0.4054008   0.3392508  -0.7873158
   0.3681852   0.4718557   0.3537594  -0.2145718  -0.1325488   0.3717379
   0.4234059  -1.5621514   0.2220496   0.3639010  -1.0314222   0.8741731
   0.1765191  -0.0534724  -0.1586855   0.0867899   0.4756662   0.9535975
   0.8803631   0.5075552  -1.5910258  -0.0317753   0.1172035   0.1278213
   0.1981252   0.4954852  -0.2066621  -0.6583753  -0.6411175   0.8034949
   0.0516798   0.1934741   0.2071332  -0.1858502   0.2724014  -0.8725068
  -0.0923511  -1.6792974   1.3542951  -0.1441884   0.0881784  -0.0215590
  -0.8634349   0.7182579   0.5909390   0.7680080   0.1436781   0.2470630
   0.3089775   0.1680944   0.0910344  -0.8907755  -0.8932291   0.1784902
  -0.1410963   1.0949015  -0.5050828   0.0049123   0.3435369   0.1481581
   0.4971724   0.2856393   0.1909068  -1.4362553  -0.1475996   0.7609353
   0.1780621   0.1252991  -0.0701257   0.6699062   0.6408468  -0.8775503
   1.2874543   1.5393774   0.7230577  -0.1195545   0.0197960  -0.1412658
   0.1182797   0.1267036   1.2460506   0.2068782   0.6305738   0.2646939
   0.0752776  -0.0003462   0.4724256  -0.6334777  -0.1339076  -0.5645796
  -0.4775926   0.2731350  -0.2698301  -0.0635357  -0.1633799  -0.2079533
  -0.8659046  -0.3310352   1.4471149   0.8111829  -0.3630433  -0.5681377
  -0.1526322  -0.1629199  -0.2180049   0.4768969   0.2177207  -0.8939611
   0.4391878  -1.0080608   0.6219453  -0.3222402   0.0797802   0.2435301
   0.1095577   0.4568946   0.7938108  -0.4482902   0.5390241   0.2727400
  -0.0069215   0.0224496   0.1357639   0.9929220   0.2640837  -0.5377008
   0.2778923  -0.4752289   0.0534305  -0.0460390   0.2725775  -0.0135332
  -0.2961416  -0.9498552  -0.7263966   0.1879126  -1.5836545   0.8673257
  -0.2036215   0.3637400   0.1413489   0.2931050   0.7657807  -0.9619313
   0.2688585  -0.4581281  -0.5467923   0.5671966  -0.0979443  -0.1478656
   0.5201763  -0.9881371   0.2019319   0.9817370  -0.6663669  -0.1568484
  -0.2044244   0.0216033  -0.2502509   1.0789919  -0.6627841   1.3463466
  -1.6231044  -0.6787687  -0.2271221   0.1455254  -0.0080108   0.1522516
  -0.5575874   1.1482401  -0.2696727  -0.5389912   0.4005465   0.9428393
   0.1488872   0.4275075  -0.0946681  -0.0107951   0.9993319   0.0112129
  -0.5885487   0.2816999   0.0517002  -0.2603393  -0.1237386   0.2005843
  -0.4957167  -0.2278286   1.0327329   0.9051498  -0.9349918  -0.7328831
   0.1635466  -0.1859793   0.0039006   0.8464758  -0.6004566  -0.4065055
   0.0707259  -0.1714461  -1.2526764   0.0764704   0.1343942  -0.1746122
  -0.9506179  -0.3871795   1.1767336  -1.0883933  -0.3473054   0.2982684
  -0.1417931   0.1869957  -0.0407403   0.1040420   0.6055048   0.6480252
   0.8653002   0.2379456   0.8747468  -0.0647763  -0.1207239  -0.1293087
   1.1991969  -0.6176218   0.2896447  -1.4238764   0.9304438   0.1270171
  -0.0948019  -0.0299595   0.0648780   0.4340832  -0.9883999   1.4158980
  -0.6566461  -0.2888023   0.1085171   0.2063198   0.0055137   0.2837537
  -0.1893798  -0.5396867   0.4188426   0.0077426  -0.4830612  -0.8126565
  -0.2809329  -0.0323262   0.0521858  -0.3202457  -1.4704538  -0.4287088
  -0.2994184   1.5192488   0.2553187   0.0804157   0.0401147   0.0795654
  -0.3347655  -2.1198168   0.1941490  -1.1557587   0.0053953   0.9393050
   0.1799114  -0.1036175   0.1607545   0.6689301  -1.6394197  -0.2874576
   0.0197572  -1.5078343  -0.9180784  -0.1138321  -0.3861980   0.2407659
   0.3717810  -0.2438629   0.1729074   0.0143877   0.3523421  -0.1634382
  -0.1241742  -0.0507864   0.0526691   1.3389434  -0.7348314   0.2634364
   0.5315220  -0.3220498  -0.0898073   0.1433783  -0.2223204  -0.0778659
  -0.4797670   1.2392620   0.8378602  -0.3075403   0.8378806   0.0747651
  -0.0577638  -0.0844197  -0.1362730   0.0017725   1.6959981  -1.1655719
  -0.7970835  -0.5248551  -0.2614309   0.3475023  -0.2327946  -0.1606823
   0.2564286  -0.7383249   0.9311404  -0.5714978  -0.3057149  -1.3080902
   0.1319378  -0.2253130   0.0144562   0.2770413   0.8389467   0.1894557
  -1.3200932  -0.5856096   1.0246937  -0.3647158   0.1298402  -0.1837492
  -0.2014840   0.9729834   0.5271941   1.8604820   0.2720361  -1.5813912
  -0.3735324   0.1545504   0.0272534   0.1934512  -0.5934810   0.2483943
   0.9017225   1.1188520  -0.2595918  -0.0129508   0.1052343  -0.3831804
   0.4091234  -0.3640300   0.7040289   0.2223500  -0.3798369  -0.7787996
  -0.1189419  -0.2772620   0.1170880  -0.8275116  -0.1447241  -0.5755430
  -1.1871306   0.8880697  -0.3036320   0.1945248  -0.0302877   0.2894907
  -0.0870778  -1.3360996  -1.8522219  -0.8826877  -0.3993998  -0.1311356
   0.1553678   0.0604293   0.2586665  -0.2871496  -0.2844025  -0.4125014
  -0.0586867   0.1610589   1.0986786   0.0122893  -0.0987928   0.3756699
  -1.5737373  -0.0952624   0.7251160   0.2599695  -0.4182030   1.0766982
  -0.0734778  -0.0903689   0.1815947  -0.1720508   0.4631822  -1.3134024
   0.3679361   1.0107624   0.9556734  -0.1315826  -0.1864661  -0.1244715
   0.8469096  -0.0156118  -1.2964694  -0.4161773  -0.2941786   0.1906193
  -0.3697699   0.1681180   0.0856348   0.9011358   0.5091354  -0.5680652
   0.3646515  -0.9774920  -0.6894506  -0.1989617  -0.0238155   0.2085566
  -0.6124348  -1.2097799  -0.6624672  -0.8296772   0.7983251   0.1957844
  -0.0459079   0.3804766   0.0321667   0.3439710   1.5127231   0.9464763
  -0.3159892   0.4736184  -0.2256013  -0.1153655  -0.0655056  -0.0250903
   1.5974676  -0.0143394   0.1217638  -0.5314632   0.6056519   0.3192624
   0.1770742  -0.1009431  -0.0693596  -0.6569070   0.7441265   0.5583211
  -0.9588399  -0.2028565   0.5115698  -0.0591762  -0.0048594   0.1565463
   0.4965764   0.2284249   1.1015759   0.2759973  -0.4936443   0.1266893
  -0.2283652  -0.1199835   0.3677298   0.3756366  -0.5652400  -0.7014558
   0.8156081  -0.1661523  -0.1497479   0.3250021  -0.0958844  -0.2815607
  -0.0345226   0.6689434  -1.3500561   0.2011507   0.2557595  -1.0740507
  -0.1642337   0.1520476  -0.0054413  -0.0360563  -0.1287789   0.4545688
   0.9324773  -1.0403434  -0.5460727  -0.0802895   0.0343882  -0.1410600
   1.6387794   0.9162605   0.3935791   0.1870999   1.4698512  -1.3171372
  -0.2913706  -0.3759155  -0.3018085   1.2503970   0.5547596   0.7769426
   0.1217374   0.2005597   0.3799710  -0.0188216   0.0365438  -0.1116219
   0.4096515  -1.0378599  -0.2289271  -1.4527021   0.0194090  -0.4676217
  -0.1278088  -0.0593054   0.0208599   0.1116930  -1.1556813  -0.0177050
  -0.3452419  -0.9359285  -0.0098421  -0.0013990   0.1690971  -0.0780292
   1.0031675   0.4104409  -0.6670770   0.9719229   0.7518783   0.9233449
  -0.1700612  -0.0284011  -0.2945519   0.1539009   0.1543141  -0.2541735
   0.8089096  -1.2616831   0.5565242  -0.1191393   0.2866914  -0.1737155
   0.6907296   0.6631674  -0.3999026  -1.3953651  -0.5646967   1.2160941
   0.1802784   0.1930367  -0.2773775   0.3861805   0.0484522  -0.2421209
  -0.2663700  -0.4203486   0.0219383  -0.0667151   0.3160829  -0.2651188
  -0.2386641   0.3583546  -0.4838534  -1.3313547  -0.2194190   0.4310997
   0.4098373  -0.0555532  -0.0522093  -1.1686461  -0.3091800  -0.5866873
  -0.1460628   0.3137342  -2.1505077  -0.1126356  -0.2161884   0.4388224
   0.1178305   0.7787562  -0.2155916   0.3260289   0.3659789  -0.6209285
   0.2928909  -0.2784381   0.2540862  -0.1855057   1.8236811   0.3207521
  -0.0232342   0.7250930   0.4587517   0.2757974   0.2916748  -0.2442903
  -0.5293215  -0.3672866   0.4998946  -0.6538831   0.2255486  -0.7173737
  -0.1275557  -0.0036408  -0.0452883   0.4261342  -0.2689159   1.1868974
   0.5027709   0.7376388  -1.2707371   0.0231785  -0.0615780  -0.0800181
  -0.1603043   1.0034068  -0.8456855  -0.8585527  -0.3768739  -1.6241120
  -0.0038133  -0.0650513   0.1995429  -0.9847787  -0.5247751  -0.7256607
  -0.3270488   0.7945520   1.0294617   0.1184975   0.2316079   0.0133185
  -1.4510593   0.1534457  -0.0482973   0.5835808   0.2413455  -0.1490860
   0.0605355   0.0966848  -0.0280735  -0.1631583  -0.6409495  -1.9476771
   1.2893575   0.1808221  -0.4547682  -0.1320153   0.1212049   0.0044332
   0.9774307   0.6146012  -0.4325446   0.3015497   0.7690821   1.7472199
  -0.1175210  -0.2719119   0.0827686  -0.2663745  -2.0665979   0.0379423
   0.9924933  -0.2688443  -0.6428950  -0.0936968   0.2984014  -0.0217302
   0.3032275  -0.0241688   0.0828854  -0.4449057  -1.4976381  -0.0974407
   0.0033224  -0.2000256   0.0292868  -0.3169368   0.0704026  -0.4607113
   0.3957538  -0.1584210  -0.2383765   0.1239223   0.2099425   0.1376658
   0.2931771   0.5626810  -0.3036773   0.0411246  -0.6966739   0.7594177
   0.1924936   0.0411591   0.1946399  -0.4945070   0.0997201  -0.0926167
   1.1684278  -0.5939557  -1.0526179  -0.6616268   0.0497770   0.0205185
  -0.2339482  -0.2925740  -0.3274795   0.0626229   1.6044194  -1.5001242
   0.1499103   0.0187529   0.0176208  -0.3550436  -1.1169091  -0.3010085
   0.4645325  -0.0322484  -0.2745749  -0.2505168  -0.0893840   0.0660882
  -0.7596861   0.2972997   1.2165308  -0.4089165  -0.2243286   0.9844907
   0.1954715  -0.1199903   0.1129274   0.6310877   0.6912944  -0.6336230
  -0.5440628   0.0896338   0.7706228  -0.1809101  -0.1796203  -0.0804661
   0.6247168  -0.4826833   0.6047157   1.5975026   0.1401111   0.4038161
   0.0826470   0.0213248   0.0887311   0.9570026   0.1670325   0.1205200
   1.6176980  -0.0908822   1.2657170   0.0789902  -0.3969161  -0.2265499
   0.2923021   0.0904960  -0.6499589  -0.1812559  -0.4733325  -0.6514226
  -0.0338966   0.0127478   0.0078907  -0.4793809   0.4191346   1.6150928
  -1.2343717   0.3297455  -0.5339969  -0.0353390   0.0103148   0.1700171
   0.4117368  -0.0749640   1.3157347   0.0851247   0.0294290  -0.4338466
  -0.1686984   0.3711594   0.0172398  -0.0321496  -0.3035843   1.2250423
   0.0863390   0.2555249  -1.3931790  -0.1874420  -0.1123929   0.1582326
  -1.2131426  -0.2996063  -0.0512154   0.3527110   1.0753155   0.8915169
  -0.1375689  -0.1542158   0.1608442  -0.8410973  -0.0623241  -0.2401334
   0.6652566   1.7069270   0.7697193  -0.2065258  -0.2716765   0.0054906
   0.7359583  -0.2272683   0.5906135  -0.6594718   0.7398461   0.3577181
   0.1007625  -0.0080723  -0.1007449   1.0573882   1.0479894  -0.4606551
   0.4580020  -0.7792127  -0.4834930  -0.1386446  -0.1688689  -0.2521947
  -0.7210435   0.3839351   0.4160454   0.2418832   0.3229486  -1.1039945
  -0.0525029   0.0070110   0.2733523  -0.8127314   0.2664201   0.4040088
   0.3355633   0.9756851  -0.7927191   0.1983809  -0.0359245   0.0264646
   1.2503226  -0.2732280   0.3299457  -0.3192399  -0.1427665   1.9045557
   0.3991396   0.1451154   0.0552966   0.4476387  -0.6627076   0.2691295
   0.3415142  -0.3952258   0.0441009  -0.4147300   0.0602607  -0.4555883
   0.1674746   1.3217857  -0.0146953   0.6269681  -0.7440052  -0.1188330
   0.0223236  -0.1225469  -0.0982793   0.6080100   0.7614626  -0.5575772
   1.3584064  -0.4153746   0.0794146   0.0665990  -0.0613361  -0.2105538
  -1.2917084  -1.1305792  -0.8180044   0.5533235   0.4799918   0.2722228
  -0.1828865   0.1021356   0.1603053   0.7994466  -0.3375448  -0.2622586
  -0.1452936   0.4618090   1.6757465  -0.1571156  -0.1454305  -0.1662511
   1.0503561  -1.2538438  -0.0926678  -0.0982329   0.3168943  -1.5338197
  -0.0406082   0.1201283  -0.0219576  -1.4440630   0.2211347  -0.8395886
  -0.9415391  -0.0703746   0.7692655  -0.0761897  -0.0973073  -0.2154876
   0.4859136  -0.1011325   0.3675940  -0.6622035  -0.2988160  -1.0957905
   0.0604817   0.0943393   0.1311987  -0.1820191  -1.1922471  -0.2954781
   0.1291250   0.0455432   0.1765667   0.1036237   0.0171794   0.0503786
  -0.4209800   1.3878052  -0.4728006  -0.0401793   0.7567827   1.4313166
  -0.1395402  -0.0557350  -0.4498152   0.1836126  -0.5240018  -0.9919117
  -0.0620006  -0.1518735  -0.6489878  -0.0267187   0.3561214   0.0436929
   0.6695620  -0.3316989   0.0645729   0.4563909  -0.4544931   0.1560526
  -0.2157917  -0.2564847   0.1900005   0.1988099  -1.0635066  -0.5651460
  -0.4663104  -0.0131778   0.8751506  -0.0927913   0.0208636   0.2523398
   0.4589765   0.7995262   1.3823363   0.3208858   0.1002642  -1.0642844
  -0.0494067   0.1058764   0.2110610   0.1375579  -1.2046182   1.5863613
   0.2656726  -1.7219829  -0.0538161   0.0883109  -0.4150134  -0.0161087
  -0.0981499  -0.5180442  -1.2363372   0.0986661   1.4832845   0.1229770
   0.0128379  -0.0884091   0.1771677   1.2398027   0.9532720   1.8592302
   0.1161817  -1.3974739  -0.0237733  -0.0168732   0.1437534   0.2731644
  -0.3032730  -0.2043779  -0.8823868  -0.0311636  -1.0531717  -1.0061036
   0.0946583  -0.0416942   0.0523576  -0.8814155   0.1698008   1.2576964
   1.4845118   0.2815681  -0.9492739   0.0077026   0.1070713  -0.1440563
  -0.5791153  -0.2983284   0.2592721  -1.3959167  -0.4898437  -0.2969767
  -0.2466328  -0.3666708   0.2967553  -1.1108124  -1.2693601  -0.6966307
   1.4821170  -1.1768492   0.4784509  -0.1992710   0.3626421  -0.2780998
   0.5651704  -0.6455221   0.2308611   0.4463292  -0.7734021   0.3142375
   0.1592142  -0.1109628   0.0144844  -1.0858365   0.4331651   0.2719291
   0.6531488  -1.5492209   1.9157986   0.1418807  -0.1980677  -0.0550916
  -1.0462354  -1.7120606   0.3337657  -0.7177816  -0.1868578  -0.7131984
   0.3243003   0.5187817  -0.0201697   1.0272031  -0.5139871  -0.2196435
  -0.4515056  -0.0824071  -1.7618840   0.1213879  -0.2953676  -0.0090609
   0.9620703   0.7852859   0.4345495   0.5599472   1.3644657   1.1758607
  -0.0531434  -0.1012549  -0.1629178  -0.1578899  -0.2673808  -0.7018047
   0.2982498   0.7734465   0.2008138  -0.1940400  -0.3663751  -0.2779096
   1.2669852   0.5588861  -0.7462121  -0.9425268   1.9985064   1.6281804
  -0.0897905  -0.1505189   0.0839894   0.7832805   0.3077867   0.2231361
  -1.0017189   0.6179823   0.1433784   0.2321948  -0.3368297  -0.0825952
  -1.0735999  -0.2395344   0.6569016   0.8213003  -1.3443998  -0.6577064
  -0.0775594   0.0966977  -0.1533031   0.5375934   1.6096706  -0.3276799
   0.2085412  -0.1277223   0.3338684   0.1299843  -0.1261612  -0.0923792
   0.2670685  -0.8210965  -0.7628850   0.2186798  -0.2868744   0.9115320
   0.0837034   0.0928331   0.0142432   1.2287445  -0.6029856   0.3869088
   0.4386540   0.9853344   0.4380318  -0.0858894   0.4728037   0.1818652
  -0.9996201  -0.3938838  -0.6766366   0.2103159   0.3781289  -0.3553403
  -0.2697192   0.2597912  -0.1130910  -0.1865691  -0.7678745  -0.1395130
  -0.7764856   0.2436889   0.2357438  -0.0422857   0.2868682  -0.3487878
   0.3468300  -0.1782076   0.3649356  -0.7824647   0.1552756  -0.3416771
  -0.2383225   0.2320257  -0.0384174  -1.0406697   0.8563522  -0.3073457
   0.0810664  -0.0991583   0.6886497   0.2265092   0.1696471   0.1026056
  -0.1547758   0.6104491  -0.3597222   0.7343988  -0.1596423   0.2767382
   0.1378722  -0.0384392  -0.1609596  -0.0983226  -0.1677245   0.0967989
   0.2352282  -0.2771196  -0.4453062   0.0239178  -0.1888373   0.2332519
   1.3281008   0.2628359   0.3138302   0.1039276   1.1174313  -0.0146694
  -0.1248854   0.0518274  -0.0083452   0.0607586  -0.3705871  -0.4433237
  -0.3090838   1.8757712  -0.0797477  -0.3119354   0.0097965   0.1538254
  -0.4436848  -1.6550511  -0.3618016  -0.9306810  -0.0629365   0.2948628
   0.0922752  -0.0235114   0.1575217   1.3502634  -0.6111994  -0.4064596
  -1.2889236   0.3217749  -0.3522069   0.2512767  -0.0514990  -0.1151694
   0.1225604   0.1867593   0.6066192  -0.6429043  -0.2168612  -1.0036279
   0.0312779  -0.0336783  -0.0957962  -0.6817961   0.3211872   0.3445221
  -0.2843516   0.5150954   0.8537308  -0.0095107   0.1840222   0.0641789
  -0.3186518   0.8951461   0.4169788   0.1119957   0.1859895  -0.2571028
   0.1069736   0.0498629  -0.1972709  -0.5550762   0.1108743  -1.0060175
   0.8726090   0.1326806  -0.0932878   0.1982168  -0.1830291   0.1093939
   0.0773026  -0.6869015  -0.2332665  -1.0000248  -1.2770850  -0.8305560
   0.0576940   0.0446998   0.0177575  -0.1681687  -0.1823409   0.3556351
   1.1683877   1.6161334   0.9798265   0.1794271   0.1760934  -0.3788548
   0.7208163  -1.5197596   0.7619356  -0.5864313  -1.2372079   0.4309547
  -0.3241031   0.0554357  -0.0887826  -1.1613465   0.2296176   0.1479605
  -0.3167674   0.3556499  -1.1799284   0.0894668   0.2053340   0.0280486
  -0.1387581   0.4080299  -0.4057948   0.5012264   0.2560931   0.8554051
   0.0673253  -0.0051307   0.1561609  -0.6300996   0.4069621   0.1966935
   0.1555479   0.1872575  -0.2491650  -0.0605071  -0.1228814  -0.0910725
  -0.6263791  -0.1573705  -0.5438709  -0.1610983   0.2877079   0.4059918
  -0.0557352  -0.2372225  -0.0841320   0.4283127   0.3471759  -0.6149735
  -1.2421085   0.2197741  -1.0848922  -0.0434015  -0.0989177   0.2589232
   0.3755306   1.7632475  -0.7336557   0.2049428   0.3793392  -0.0774648
  -0.0241199   0.0050117  -0.2417342  -0.4668511   0.2244351   0.3329618
  -0.8146203   0.1733948   0.2271455   0.3345207   0.0298380   0.1684696
   0.0589551   0.4965122  -1.2638941   0.0784036   0.4847199  -0.2960762
  -0.2186009  -0.2807138  -0.2197647  -0.0452530  -0.9657574  -0.0480516
  -0.3874601  -0.3384671   0.0930765  -0.1612918   0.1171302   0.0064320
  -0.5819300   0.1764416  -0.7756010   1.1376152  -0.9079124   0.4966649
  -0.0047554  -0.0858971  -0.2691549   0.5655915   0.8388212  -1.5136391
  -0.0315560  -0.0744674   2.0544310  -0.1069777   0.0176120  -0.1164725
   0.4364850  -0.7135503   0.5081618  -0.7392988  -0.6623608   0.5933543
   0.0910950  -0.1041617   0.1271552   1.3809622   1.2426412  -0.0034161
  -1.0544605   2.3024805   0.5998482  -0.1000150   0.0013905   0.3216209
  -0.2494583  -0.1568704  -0.5496776  -0.5592420   1.1930414   1.8379592
   0.0057034   0.1207608  -0.1772318   1.9332710   0.0388261  -0.1716763
  -0.5814032  -1.9215980   0.2428729  -0.0707449   0.3479464  -0.0595173
   0.5113103  -0.7567511  -0.8183208  -0.6835126  -0.8503553   0.8478258
   0.0998749  -0.1832907  -0.2465080  -0.0506848  -0.2781996   0.6040345
  -1.0051782   0.4021601   0.0113126   0.1703120  -0.0419301   0.0046435
   0.7358475   0.4373088   1.8975874  -0.1408700   0.1758046  -0.1979489
   0.1081242  -0.3899610   0.1021271  -0.2352390  -0.1806884   0.6006553
   0.3239609   1.6968088   0.3708219   0.2998709  -0.2798275  -0.0366169
   0.8059985  -1.7265267  -0.1552020  -0.3901521   1.6565819  -0.3754816
   0.0241711  -0.0660582   0.1427906  -0.5941422  -0.4940079   0.4647855
   1.1809417   0.0757077  -0.3959477  -0.0013124  -0.0315577   0.0977475
   0.4123636   1.2536793  -0.3227383  -1.5701110   0.4388739   0.9111552
  -0.1318236  -0.2047905   0.0205401  -0.2160042   0.9660929   1.6160884
   1.0226343  -1.0902387  -0.7219318   0.3330581  -0.1740846   0.1668018
   0.7277192  -0.3071460  -1.1436091  -0.0801312  -0.5268244  -0.4356780
  -0.0194438   0.0234722  -0.0097460  -0.4118129  -0.1262817  -1.0985750
   1.4508550  -0.1587632  -0.8274519   0.3913342   0.2052803   0.1373097
   0.0001571   0.9663781  -0.5926871  -0.5471857   1.5406476   0.3007381
  -0.0818492  -0.1983054  -0.2197386   1.0277722   0.3760608  -0.3221105
  -0.2306110  -1.1187508  -0.8942164  -0.2564963   0.0764721   0.1102470
   0.1031299  -0.7540305   1.3454347  -0.4096911  -0.4749232  -1.2465079
  -0.2143399   0.3484971  -0.0016158   0.8222454   1.1615011  -0.3039158
  -0.1318686   0.9435295  -0.1755037   0.1523728  -0.0865973  -0.3349222
  -0.5725731  -0.1702282  -0.1838097  -1.0667662   0.4208662  -0.4904907
  -0.0495438   0.0446847   0.0053938   0.8612723   0.9850683  -0.5078459
  -0.0289768   0.3286239  -0.0203129  -0.1205752  -0.0083871  -0.2299519
   0.0936175  -0.9102739   0.1014792  -0.3004493  -0.8331648   0.7899011
  -0.3075816   0.1966539  -0.0743339  -1.1710193   0.6251285   0.7164727
  -0.9682772   0.4130627   0.3225515   0.0313969   0.0932593   0.3560779
  -0.7586013  -0.5245128  -1.5192190   0.0641392   0.9646316  -0.7786801
   0.3096532  -0.1347625  -0.0995647   0.6469332  -1.7466244  -0.0529489
   0.7772664  -0.3830925   0.5118502  -0.0905648  -0.0513589   0.0040915
  -0.2238290   1.9552533   0.2799487  -0.0064876  -0.0855693  -0.9058745
   0.0454599  -0.0680815   0.1381737   0.6050872  -0.6274471  -1.0611278
  -0.1141594  -0.3541699   0.0413613   0.2267989  -0.1135138   0.0312178
   0.6541689  -0.4574781   0.1096732   0.3921499  -0.9317736   0.7741477
  -0.0471948   0.1037625   0.0245515  -0.3753741   0.0116307  -0.9856549
  -0.4529592  -0.6854820  -0.0150630  -0.3616724  -0.0623597  -0.1970088
   2.6405133   0.6543945   1.1595978   0.1524207   1.2378513  -1.0726940
  -0.2452357  -0.3709069  -0.0593622   0.6298050   0.0845911   0.4325544
   0.2016130   0.7360239   0.6585870  -0.0393383   0.0603835   0.3288696
   0.8113182  -0.8876290   0.9101668  -0.3974771   0.2861234   0.6481970
  -0.1731345  -0.0670153  -0.1040902  -0.1772534  -1.0154599   0.3850492
   0.3465359  -0.2782341   1.3977341  -0.0266151   0.0890155  -0.0388517
  -0.7927708   0.6515038  -0.8420105  -0.3060525   0.6447996   0.2451512
   0.1247614  -0.0850319   0.2031539  -1.5017914  -0.1185024  -0.2701784
   0.3595344  -0.2757198   0.9386664  -0.0909422   0.0447363   0.0847805
  -0.9277110   0.4339052   0.6463506  -0.5064187   0.9890441   0.4067044
   0.1597601  -0.0567103   0.1319175  -0.1397481  -0.2073691  -0.6077528
   0.4975091   0.5567941   1.0750171   0.0653364   0.0986176   0.0650994
   0.9537567  -0.2652491   0.4586501   0.6889187   0.0189383   1.0096226
   0.3051684   0.0326000   0.0350351  -0.0083531   0.1238403   0.3862888
  -1.3789660  -1.5805748   0.6707422  -0.2074838   0.2488494  -0.1780575
   0.6009800  -0.6920768  -0.2277731   0.2213104   0.8528415   0.7009487
   0.0231186   0.0224615   0.2889855  -0.5946260   0.0644733   0.1171989
  -0.6044317  -0.1606498  -0.2371342   0.3777395   0.0295432   0.1812040
   0.6678031  -0.5917542   1.1794374  -0.4584511  -1.0971191   0.7276570
  -0.2248166  -0.0069029  -0.4072097  -0.1302771   0.4381071   0.0333803
  -0.1032804   1.0350644   0.0337585   0.2517027  -0.1463301  -0.1615352
  -0.0499034  -0.8144691   0.1833010  -0.8627343   0.9739122   0.1733611
   0.4327793   0.2621162  -0.2673257  -0.0361976  -0.7610370  -0.2070815
  -0.7065629   1.4468138  -1.0983071   0.1555640  -0.1126362  -0.0957711
   0.7763221  -1.6719520  -0.4023838   0.9224240  -0.6861716   1.9511605
   0.1247147  -0.0206553   0.1089134  -0.1896463   0.6607689  -1.0258454
   0.4843045  -1.6873651  -0.7761518   0.1911768   0.2319977   0.1200854
   0.1643603  -0.6676284   0.2121448  -0.2487477   1.1777355  -0.3285442
   0.0301746  -0.1608921  -0.1296819   0.3476716   0.2583226  -1.6481200
   1.7978911  -0.7881004   1.0685669  -0.1373705   0.3640310   0.0791059
  -0.7338242  -0.1477375   0.0552625  -0.7132190   0.0713253  -0.4153893
  -0.0895056  -0.1551243  -0.0282459  -0.6343867  -0.4697979   0.2780909
   0.3177846  -0.4531412   0.8403769   0.2250083  -0.1339218  -0.0908202
   0.0695058   0.9330990  -0.9000565   0.8774283  -0.9473030   1.2527888
   0.0023808   0.0938941   0.2684952  -0.3712224   0.4140136  -0.3835790
   0.1260608   0.2507311   0.4300446  -0.0694046   0.1954261  -0.0672863
  -0.0609427   0.3671550   1.3330688  -1.0658318  -0.0945477  -1.3216067
   0.1850895  -0.0034614   0.0235794  -0.8021591  -0.2585212  -0.6251930
   0.0230988   0.3803286  -0.3350118  -0.1404113   0.0268296   0.0183522
   0.7942356  -1.1980633  -0.9293194   0.3981680  -0.9980133  -0.4656206
  -0.1190504  -0.2139224   0.0358281  -0.7560260   0.3434129  -0.8860090
  -0.5855057  -0.5743570  -0.4634121  -0.0401456  -0.3284313   0.0997615
   0.0039916  -0.8483913   1.0183288  -1.3182246  -1.3602167  -1.4076863
  -0.0666661  -0.0414469   0.1820784   0.5848218  -0.8649655  -0.0587393
  -0.5229633  -0.4047653   0.9304681  -0.0612242   0.2838479   0.1102559
   0.9030182  -0.9955877   1.7701269  -0.1044713  -0.0875109  -1.3700048
   0.0996851   0.4421078  -0.0434214  -1.1401548  -1.5623762   0.9661283
   0.4760569   0.5018492  -0.0211970   0.2389221  -0.1896034   0.3632594
   0.8824677   0.2546099  -0.3082412  -0.2874119  -0.1557721  -1.1365904
   0.0228709  -0.1685628   0.0254742   0.6447256   0.1335345   0.4346060
  -0.1731667   1.3976682   0.1850717   0.1419873  -0.0576131   0.1376389
   0.3215043   0.2872568  -0.2563463   0.7863143   0.6983659  -0.4539650
  -0.1407977   0.0030243   0.3534566   0.0512706  -1.0491581   0.8614786
  -0.4010395  -0.2917717   0.2264879  -0.0384176  -0.2139967   0.2200027
  -0.4327369  -0.8225776   1.5599066   0.2828745   1.0168623   0.2613741
  -0.2087683   0.0323931  -0.0014239   1.3270072  -0.1459673  -0.0551099
   0.2836645   0.0569625  -0.1694398   0.0039546  -0.2035765   0.2496329
  -1.0363130  -0.3914078  -0.7195402   0.6469485  -0.2231073   0.6409494
  -0.0358820  -0.2079155  -0.0500164  -0.1127561  -0.6372532  -0.3501975
   0.3575838  -1.1344749  -0.5648043   0.0702949   0.3074775  -0.0873858
   0.1130576  -0.2960632   0.0279689  -1.0114459   0.9206280  -0.1998583
  -0.1278178   0.1367157   0.2004831  -0.2437501   0.6344478   0.3863251
  -0.4720767  -1.0478849  -0.3176074  -0.0951067  -0.1981894   0.0366800
  -0.4604210  -0.0304338   1.0074575   0.4722572  -1.3081197   0.1855732
  -0.0066254  -0.1154121  -0.1474557   0.2513221  -0.0290558  -0.0626492
  -0.9560427   0.0728401  -0.4782465   0.3058131   0.1560810   0.1013347
  -0.2386717   0.9384751  -0.6232186  -0.6394816   0.0039405   0.6608259
   0.1306612   0.1704081  -0.0571756   0.5382490   0.0180172  -1.2268813
   0.4994817   0.1523367  -0.6257883  -0.1393936  -0.0429885  -0.0742661
   0.6621609  -0.1513267  -0.2210966   0.3397297   0.7319075   0.1634594
   0.1764766   0.0263511  -0.1067227  -0.7328417  -0.5239995   0.0100275
  -0.5500419   0.4713920  -0.4562697  -0.0323834   0.1389889   0.0781454
  -0.8739572  -0.8536861   0.3934651  -1.0717819  -0.2878307  -0.7079151
  -0.0105476   0.1375030  -0.1184237  -0.2813356   0.7079212  -0.1408351
   0.5723416   0.0983660   0.2996614  -0.0902349   0.2961110   0.0190867
   0.7156208   0.5623521   0.9994973   0.8073097  -0.4539315  -0.3877317
  -0.1200778   0.0886582   0.1302344  -0.0165124   0.2098634  -0.0585573
   1.0733769  -0.2910748  -0.2846631   0.0525974  -0.0253571   0.2237059
   0.3295252  -0.1488210  -0.1910411   1.0316424   0.5162618   0.3092113
   0.2406236   0.2470797  -0.1464146  -0.8914895  -0.2390078  -0.5599856
  -0.7540086  -1.6355915   0.1062681   0.1449437   0.1291245   0.0559983
   0.0221613   0.8712202   0.0665539   0.3400934  -0.0184414   0.2708915
  -0.1681865  -0.0733537   0.2804283   0.0331846   0.5199792   0.1590884
   0.7119350   1.1554459   0.2184788   0.3513011  -0.0954755  -0.0360809
  -0.5438174  -0.0255384   1.2027355  -0.5538329   0.7213057  -0.3976005
  -0.3141077  -0.1682092  -0.3323885   1.0595030   0.8418770  -1.0654175
  -1.4062578  -0.7088145   2.0132960   0.0858452   0.0702992  -0.1162286
   0.0601363   0.5956893   0.3946602   0.5694945  -0.1937623   0.6978271
   0.0756251  -0.0343373   0.1337253   1.2146053  -0.2271284   0.3207512
  -0.2420959  -0.4779924   1.0164975   0.1032621   0.2023488   0.0561941
   0.5355077  -0.1282616  -1.6122313  -1.0760840   0.7308357   1.5682397
   0.0855086   0.2353824   0.1157363   0.3732456   0.6631557   0.2306990
  -0.3140647  -0.5429681  -1.4470788   0.0714075  -0.1860783  -0.2786290
   1.7302818   0.5591401  -0.5232362   0.5660201   0.2184933  -0.2370491
   0.0403148   0.2165518   0.2356763  -0.3952520  -0.5628700   0.2113824
  -0.2134660   1.0608610  -0.7703946  -0.2222365  -0.3912410   0.3001915
   0.4806259   0.4565695  -0.2446380   1.0648413  -0.2176785  -0.4004567
   0.1080499  -0.0842962   0.0537522  -0.7296012  -0.4510884   0.6571293
  -0.7629917  -0.6776994  -0.2338619   0.0537402   0.1055771  -0.0302920
   0.5440711  -0.1695730   0.8270371  -0.8402355  -1.2217061   1.3850767
   0.1976087  -0.1068306   0.1823034  -0.3893245   0.0182539  -0.5452467
   0.9294979  -0.8314881   0.9523551   0.1626362   0.1661913  -0.4167038
   1.2474847  -0.1199750  -0.6940380  -0.8996951  -0.1208209   1.5270987
  -0.3198209   0.1977943   0.0952102   1.2771098   0.9668855   0.1589877
  -0.9804541   0.5346368  -0.5497207   0.1403299  -0.1634804  -0.2068794
   0.3459878   0.5915571   0.7968135   0.0045747   1.2684048  -0.8827681
   0.1361180   0.2929659   0.2390392  -0.9867245   1.0737802   0.2335443
  -0.6341894  -0.3158392   0.2594176   0.2645058  -0.0205754   0.3057200
  -1.0438458  -2.0211218   0.0309119  -0.3225258   0.2145894   0.6098181
  -0.3308756   0.0911049  -0.0716572   0.4460498   0.5960762   0.0139195
  -0.4763015   2.1332458   1.7175966   0.0351544   0.2330563   0.0059904
  -1.0494686   0.0633467   0.2195076  -0.2154050   0.2689159  -1.0342369
   0.0122181   0.1918460   0.0249597  -1.4583058  -2.1320723  -0.3591364
   0.5837414   0.9197972   0.7620306   0.2197095   0.3279944  -0.0416530
  -0.1720819   0.2190163   0.8510144   0.5609259   0.6215853   0.5171571
  -0.2160370   0.0327315  -0.0446170   0.2425974  -0.8701781  -0.4285689
   0.3791388   0.7199931  -1.0348435   0.0143473   0.0315489   0.1467636
  -0.6682523  -1.1477434  -0.9931695   0.2311247   1.2077993  -0.1964229
  -0.1640855  -0.0954772   0.3222226  -0.1570576   1.2824822  -1.9255473
  -0.1147542  -0.4817697   0.3569105   0.1964836  -0.1451840  -0.1194627
   0.3181409  -0.0773093   0.1424793   0.2803681  -0.5249899   0.5041159
  -0.1577043   0.2129280   0.2324072  -0.3850910  -0.1528830   0.1972634
  -0.1826558  -1.8100865   0.9660774  -0.1951487   0.4980375  -0.1863354
  -0.7336963   0.5047242  -0.4268946  -1.3080754   0.4642197  -0.1138344
  -0.0141377   0.0175556   0.2050757   0.8831226  -1.2194481  -0.4077452
   0.3292401  -1.0870888   0.4707624  -0.2078166   0.2471195  -0.0310468
   0.1861523  -1.3406785   0.0535964  -0.8530565  -0.3442022  -1.0338750
  -0.3113151   0.0395423  -0.0494351  -0.7455714  -0.9093561   0.0979077
   0.4367064   0.7263424  -0.2995410   0.0456346  -0.0564481   0.2319519
   0.3994099  -0.8214821   0.2995017  -0.0455268   0.8343103  -0.4656621
  -0.0594715   0.0966721   0.1359504  -0.3163238   0.6220614  -0.4736597
   0.4225216   0.4464085   0.6103172   0.0143444   0.1407549  -0.0709763
  -0.1504792   0.0076787  -0.2501583  -0.8259062  -0.6869461   1.8740327
   0.4189050   0.1043217   0.0536977  -0.7008038  -0.2511265   0.2979150
  -0.6076645   0.1898132  -0.6997640  -0.1926896   0.0508262   0.0557526
   0.0844787  -1.1098819   2.2727039  -0.2826503  -0.2375195   0.1693653
  -0.1984113   0.2291637  -0.2498745  -0.0339257   0.3843481   0.9415343
   0.1603511  -0.3792757   0.5493535  -0.0626990   0.3054162   0.1597353
  -0.6750291   0.3687855   1.5697488  -0.1183932   0.9785072   0.8675957
   0.1778420  -0.0013172   0.1873250  -0.5200334  -0.0343432   1.0124292
   1.1554169   0.6670162  -1.0404843   0.0260504  -0.0104495  -0.1006374
   0.8354742  -1.1473964  -0.5254726  -1.0176410  -0.6742372   1.4514807
   0.1946465  -0.0559165  -0.1643830   0.5407749   1.2918535   0.0767837
   0.8063260  -0.4442703   2.0886740  -0.0275051  -0.0282451  -0.2125470
   0.1317224   0.5100674   0.5104322  -1.3095905  -0.3221684  -0.7837474
  -0.2099759  -0.1953691  -0.2824441   0.0698047  -0.4445864  -0.3846167
   1.0142183  -1.0978251   2.0434242   0.0810810  -0.1953316   0.1008249
  -0.1621400  -0.6924169  -0.3280581  -0.8645090   0.0119031   0.1282063
   0.0642089  -0.0696254   0.2623025   0.0768521  -0.3681161   0.5351986
  -0.7808646  -0.0484402  -0.2958622   0.4046847  -0.0932487   0.1236746
   0.8178183   0.5971029  -0.2631062  -1.2425689  -0.5254458   0.0397327
   0.1790901   0.0596619  -0.0201065  -0.5184489   0.7641189   0.1214413
  -1.3894587   1.5266547   0.4673399  -0.1557624  -0.0209636  -0.0646251
  -0.6714981   0.0686838  -1.0635391  -0.7265990  -0.6569970   1.5823867
   0.1538573  -0.3041855  -0.2304722  -0.5302135   0.6373051   0.0518502
  -1.3561619   0.9983219   0.8708573   0.2056683   0.0352769   0.4087467
  -0.9590258   0.4409595   0.4101562   0.7352291  -0.4884065   0.1109908
  -0.3154275   0.0135250   0.2142213   0.4388579   0.0531458   0.9235075
   1.0029129   0.4161054  -1.0559753  -0.1422799  -0.1345780  -0.2939300
  -1.0413473   1.1556237  -1.1026832  -0.3612242   0.1028531  -0.2799474
   0.0930174  -0.0557614   0.0042618   1.4692329  -0.1547678   0.2986088
  -0.1007088  -1.4916803  -0.3018372  -0.1998584  -0.2027146  -0.1264990
   0.1105653  -0.6692721  -0.7713225  -0.9144609  -1.0423586  -1.4326008
   0.0172979   0.1288674  -0.0420894   0.1088868  -1.0555563   1.0592083
  -1.1353308  -0.1906455  -0.9806488   0.3087240   0.0064818  -0.2067921
  -0.2871495   0.1717715   0.5728846   0.6320298   0.6942757   0.1561612
   0.0415149  -0.0490925   0.3783419  -0.2193504  -0.3632507   0.0019948
   1.3462220  -1.2033060   0.0652450  -0.0386660  -0.3833164  -0.1408574
   0.0526810  -0.0017763   1.4466496   2.1101882  -0.7954363  -0.1898007
  -0.3757059  -0.0790165   0.0274236   0.9059676  -0.0484499  -0.1710717
  -0.0631280  -2.5077657  -0.2495838  -0.1293237  -0.1241846  -0.1651846
   0.0607932  -0.0617505   0.5466603  -0.9084935  -0.9099922   0.2786495
   0.4364260   0.1359502   0.2080717  -0.3252893   1.4066516   0.7643709
  -1.0208991  -0.4148065   0.7715944  -0.0305128   0.1529135  -0.2340763
  -0.2773692   0.2698271   1.0943862  -0.8486018  -0.5045244   0.4041319
   0.0732953   0.1139692   0.0013250  -1.3274541   1.1733567   0.6712587
  -0.0664649  -0.6914379   1.2518547   0.1670045   0.1317174   0.3179570
  -0.4841475  -0.8860839  -2.9521038   0.4579863  -0.4012225   0.5479665
   0.0704942  -0.0760503  -0.4683825  -0.2396309   0.6581608   0.4499607
  -0.9720203  -0.5875268  -0.0777500   0.1734657  -0.0323499   0.0813069
  -0.0757547  -0.3562607  -0.6666681   0.5245982   1.0059139   0.8119930
  -0.1202514  -0.0996590   0.1279278   0.2218789   0.5998412  -0.5073313
  -0.8902296   0.3493825   1.2147654  -0.1577277  -0.0047369  -0.0216861
  -0.9442196  -0.0475515   0.4477859   1.3771173   0.1110562   0.3708988
   0.0667511   0.0874660  -0.0836009  -0.5486287   0.1009520  -1.5850857
  -0.4696483   0.5359886   0.3922772  -0.0682956   0.0042077  -0.0353489
  -0.4143882   1.1304410  -1.2971752  -1.2172827  -0.0119277  -0.8923064
  -0.0092936  -0.3507524   0.2693933   1.2420788   0.7410095  -0.2783950
   0.2869513  -0.1760955   0.9527198   0.0306293   0.3067663   0.1595374
   0.1714517  -1.7955316  -0.5144265  -0.5986392   0.3806564   0.1902079
   0.2305129  -0.0655108   0.0899551  -1.9771371   2.0914115   0.9133060
  -1.1126673  -0.7427419   1.2932952   0.0788189   0.0106204  -0.3200574
  -0.4039845  -0.9202655  -0.6161403   0.7181583   0.9901694  -0.1360940
   0.3882682  -0.2824224  -0.0743573   0.1533429  -0.6697106   0.7921437
   0.5688185  -0.9264449  -0.1691996  -0.2417004   0.1487226  -0.0074230
  -2.5583546   1.3086119  -0.6008747   2.3007069   0.5774501  -0.3058138
   0.2325795  -0.2439160   0.1474905  -0.7572250  -0.0179279   0.1249577
   0.5973925  -0.5638104  -0.7239135   0.0191299   0.0922011  -0.2287322
  -0.6892554  -0.0546306  -0.2143418  -0.0743721   0.7674785   0.0733343
  -0.1495853   0.1085106   0.0497426  -0.3678369  -0.5972345  -0.0093474
  -0.2578796  -0.2142414   1.3868662  -0.0568677   0.0359896   0.0748116
  -0.4928861  -0.4505574   1.0714123   0.1002479   0.2289316   0.3729527
  -0.1002456   0.0063882   0.2305296   1.1494676  -0.3754656  -1.0151095
  -0.4123203   0.5494774   0.6098840   0.2312997   0.2333619   0.0556010
   0.5751285   0.1375555  -0.0436902   0.0676941   1.5765729   1.1497677
  -0.0117562   0.1807125   0.1808824   0.4505854   0.3030499   0.9850122
  -0.5159257  -0.1461886  -0.1294249   0.0060256  -0.1667351  -0.1526046
   1.1522617  -1.5015611   0.8771753  -0.0222110   1.4662001   0.1236551
  -0.3220139  -0.1378016  -0.0990562  -0.3868287   0.2352275   0.1489180
   0.3162476   1.7364300  -0.6845534   0.4132238  -0.0966285  -0.3576201
   0.0551490  -0.8140209   0.6986136  -0.4001094   0.4566069  -0.2474564
  -0.1485699  -0.1668856  -0.0942579  -0.5601988  -0.9022056   0.3088029
   0.4298119   1.0501196  -1.5304026  -0.0716975   0.0508196   0.2209736
  -1.1986657  -0.0828513   1.4561036   1.9504655  -0.5876440  -1.3306715
  -0.2568609  -0.0560588   0.0376330  -0.1295441  -0.8288080   0.1872270
  -0.0105190   1.0030515   0.2476813  -0.3425105   0.3487386   0.0693416
   0.3942627   0.0593761   0.4841425  -0.0315516  -0.0160992   0.6166074
   0.2757757   0.0323746  -0.0273669   1.2321760  -0.1870045   0.0520360
   0.8724651  -1.9947538  -0.3582852   0.1106064   0.5332689  -0.2680404
  -0.4526262  -0.7458233  -0.8849353   0.5144841   0.4540531  -0.3144707
   0.1151906   0.0493566  -0.1194750   0.3538955  -1.5688511   0.2839930
   0.3313143   0.5165470   0.5802679  -0.0778940  -0.2629020  -0.0074308
   1.0695882   0.4880966  -2.4277389   0.9802591   0.2714381   1.3461008
  -0.0344363  -0.1672654  -0.0520414   1.7720282  -0.5531491   0.0109484
   1.1054369  -0.2463535  -0.5997202  -0.0652280   0.3031796   0.2827740
  -0.7650584  -0.4121004   1.0854808  -1.0675451   0.3649338  -0.6318717
   0.2988611  -0.2421646  -0.0126666  -0.9355479   0.3000759   0.9353232
  -0.0484597  -1.1480472   0.1035720   0.3145590  -0.1987726  -0.0087636
   0.2392160  -0.6170934  -0.4525803   0.5818646  -0.6142893  -0.3668736
   0.1769831  -0.0424500  -0.1980447   0.6761650  -1.0177287   0.1019760
  -0.1573792  -0.8052384   0.4944394  -0.3098063   0.1132721   0.0003629
  -1.1358215   0.0486381  -0.5340206  -0.1770728   0.8826950   0.2002157
  -0.2899631  -0.2700849  -0.4003080   1.3549966   0.9256301   0.0029829
  -0.2041782   0.6325067  -0.0908209   0.1993582   0.1765713   0.0162663
   0.5790132   0.2718216  -1.4548951   0.7160032  -0.3025407   0.1430961
  -0.0063509   0.2089641  -0.0503090  -0.4874777  -0.5650278  -0.2373979
  -0.0057009  -1.6401289  -0.2166372  -0.0515720  -0.0007382  -0.0516887
  -0.0298285   0.5283018   0.3461945  -0.3760896   0.8852368  -0.8379024
   0.0614095   0.1719432   0.1914181   1.0877851  -0.4559832   0.2841931
  -0.7024181  -1.7460490  -0.4148033   0.0923586  -0.4020848  -0.1500981
   0.0030025   0.6958410   0.2762022   1.2660223   0.4438404   1.1916185
   0.1014572  -0.4322662  -0.1550056   0.1247972   1.3881913  -0.3051767
  -0.1435365  -0.6698264  -0.9470955   0.2899908   0.0318677  -0.0681262
   0.3877482   1.0007210   2.2552370  -0.9437563   0.8936152  -1.2999727
  -0.2094425   0.4313152  -0.1083013   0.5160142  -1.5038662  -0.6246694
  -0.0150845   1.2193460  -0.2958091  -0.5145884  -0.2614081  -0.0850528
  -0.9205663  -0.5485544   0.4520482   0.1330663   0.4979803  -0.6087767
  -0.1858696   0.1396941  -0.0934870   0.8066594  -0.0462585  -0.4434814
   0.0380018  -0.3628339   0.1979855   0.0639787  -0.0668723  -0.1711910
   0.6811789   1.0434048  -1.7309314   0.0588612  -0.5584227   0.5183087
  -0.1825118  -0.0110447   0.0700250   1.0756844   0.6582068   0.0293209
  -0.3805076  -0.5256173   0.1609874  -0.3230389  -0.1085514   0.2277757
  -0.1849222  -0.6278387   0.5896248   1.0057346   0.5894738   0.9553913
   0.2957929   0.1098627   0.0795731  -0.8812641  -0.1257976   0.4720091
   0.3807450   0.5440207  -0.6521478   0.2091629   0.2110557   0.1109422
  -0.3049500  -0.2543950  -1.3589414   0.5044402   1.1129796   0.0465696
   0.1314024  -0.0065665   0.1619069  -0.3430729   0.7816823   0.5034059
  -0.8096229   0.0691927  -0.8398135  -0.0625201   0.0204556  -0.0806770
   0.3368615  -0.2850853   0.0914669  -0.0489329   0.0362241  -0.8660770
  -0.1803776  -0.2574309   0.1277702  -0.7955109   0.0423634  -0.2396760
   0.3529312   0.9352305   0.6038855  -0.3205434  -0.1190410  -0.0786861
   0.5921530  -0.3297108  -0.6212896   0.4832564  -0.8601036  -0.2352713
   0.0278281  -0.3355594   0.2581141  -1.0097584   0.5383411  -0.0026243
   1.5313562  -1.1897540   0.0867657   0.0260468  -0.4238916   0.1132268
  -0.8745885   0.9529344  -0.5951684  -0.0629645   0.6679646  -0.6924288
  -0.2170774   0.3404996  -0.3460572  -0.2376574  -0.9280265   0.9088715
   1.1579879  -0.5445591  -1.1679576   0.3677773  -0.1073848  -0.1710188
  -1.0271326  -1.0473434   0.6266571   0.3218993   1.2455720   0.6261904
  -0.0634196   0.0825698  -0.4201797  -0.8236477   1.2196006  -1.1756185
   0.9323084  -1.6113441   0.4360352  -0.1214075   0.0073060  -0.1266736
  -0.5152281   0.1608746  -0.3067778  -0.1086164  -0.8746061  -0.2781767
   0.0024668   0.2660877  -0.1192408  -0.5337692  -0.0836761   0.9264705
  -0.8716788  -0.4907836  -0.2040987   0.0320513   0.1309999  -0.1199958
  -0.2995037   0.0069050   0.5584017   1.0539751   0.1610224   0.3392300
   0.1433542   0.4334918   0.1266065   0.5157127   0.4693777  -0.4770157
  -1.2262590  -0.4089867   0.4173798  -0.3754985  -0.1628383   0.1538773
  -0.3063754   0.3866805  -0.1187271  -0.3199121  -0.5863374  -0.6267699
   0.1096268   0.2432925   0.0266571  -1.2446156   0.1704865   0.7131719
   1.3368232  -1.3386169  -0.0331387  -0.2205009  -0.0511404   0.2084352
  -2.1444121   0.4383514   0.1275171   0.9289813  -0.1905782   0.7907011
  -0.0327310   0.0395804   0.0398024   0.4966539  -1.2508836  -0.4967895
  -0.7592482   0.4745212   0.4279850   0.2348440   0.1051112   0.1012441
  -0.4901738  -0.9372147  -0.3154131   0.5570857  -0.2901643   0.3488132
   0.0835575  -0.1039427   0.3374507  -0.3435623  -1.2696562  -0.0485681
  -0.7848370   0.3676885   0.0726630   0.1963947   0.2689231   0.1096641
   1.1027979  -0.2336349   1.0005495  -0.9632788   1.2493234  -0.2937159
  -0.0711163   0.0892277  -0.1906989  -0.2444057   0.9684940  -0.7955463
   0.8271104   1.2655180   0.5771268   0.1349036  -0.2888215   0.2206428
   1.4635405  -0.4737659   0.4446929   1.0294664   1.4779934  -1.2726815
  -0.1045164  -0.1994054  -0.1894361  -0.8616804   0.6620197  -0.6861324
   1.5028222   1.4107206  -0.6526310   0.0817242   0.0727349   0.1741970
   0.2817837   0.7835996  -0.3259888   0.6659550  -1.3704082  -1.2896173
  -0.1508653  -0.1804543   0.0940281  -0.2754162   0.0760883   0.0654339
  -1.0998256  -0.3394697   0.0207051   0.1749389  -0.3503903  -0.0677307
   0.3540174   0.2797190  -0.3442847   0.9806748  -0.1564750   0.2439124
   0.1621832   0.0524450  -0.0445220   0.4572714   0.7881618   0.5595119
  -0.3650746  -0.0180210   0.5787093   0.1419854   0.2187233   0.3196233
  -0.3598288   0.5720726   0.9075897   0.7026268   0.5994064   0.2888794
   0.2436194   0.1227579  -0.1313694  -0.1921480   1.0822304   0.6037182
  -0.1295273   0.7331682   0.2192679   0.1057091   0.1098478   0.0025058
   0.0238516   0.8497519   0.9461834   0.3915315   0.2927300  -0.3754627
  -0.1128420  -0.2308161  -0.0994794   0.4830532  -0.0690757  -0.2907580
   0.7147990   0.2695512  -0.7828004  -0.1481149   0.3410211  -0.1748722
  -0.2951341  -0.2076664   0.7221622   0.2859757  -0.5934851   0.3584078
  -0.1896149  -0.1825159  -0.0760607   0.2749071  -0.6750539  -0.7597416
  -0.1521369   0.8427994  -0.0221014   0.2975575  -0.0468115   0.0227349
  -0.1763015   0.5693439  -0.5361214  -1.6202747  -0.2906495   0.1531381
   0.0840879   0.0978238  -0.0766189   0.9268170   0.4857748   0.6586514
  -0.4528576  -1.1538735   1.5316232   0.1533568  -0.1441015  -0.0743608
  -0.0406572   0.7229835  -0.5226052  -0.9807670   0.0423280  -0.7798880
  -0.0588532   0.1187551   0.1611810  -0.3615172   0.2030341  -0.9812858
  -1.1068816  -0.6211567  -1.3268506  -0.0216913  -0.4820928   0.1131925
  -0.5683802  -0.5196790   0.3780151   0.7145956  -0.2068301  -0.3982041
  -0.1444161   0.1162864  -0.4248673   1.6517717  -0.3824391  -0.2621416
  -0.6065571  -0.2173523  -0.4522787   0.1010300  -0.1352043  -0.0418754
   0.0906961   1.4101875   0.9821349  -2.4038120  -0.1852183   1.5532100
  -0.1026641   0.1134569  -0.3769597   0.9194600   0.6796181   0.0577505
  -1.3838693   0.3725199   0.6411423  -0.0506701  -0.1743975  -0.0144918
  -0.4023261  -0.4029474   0.3843991  -0.6509253  -0.3557092   0.1269176
   0.0586055   0.0455032   0.1161275  -0.3402797  -0.5790298   0.4618074
   1.2931683  -0.2626294  -0.5236877  -0.1682423  -0.1206583  -0.0094493
   0.3115277  -1.0863758  -0.7821841  -0.5770218   2.3489776   0.7493114
  -0.0771299  -0.2488483  -0.2496567   0.6712851  -1.4999605   0.7929531
  -1.0189322   1.3198096   0.7571588  -0.1544829  -0.2635961   0.0978006
   0.8492637  -0.1588739   0.0197444  -0.7603929  -1.0103262  -1.0473179
   0.2025188  -0.1093306   0.0428362   2.4189710   0.1989117   1.0052709
  -0.6996275  -0.0622169  -2.1382352   0.1072012  -0.2960034   0.3751389
  -0.3104352  -0.4298955   0.6369051   0.9127092  -0.0495650   0.2981320
   0.0168408  -0.2648918   0.0501587  -0.6156214   0.3461693   0.1375745
   0.9365411   0.9514633  -0.9260733   0.0376552   0.0729899  -0.0045780
  -1.0186949  -0.9772224  -0.9873588   0.6192241  -1.2074498   1.8456908
   0.0142156  -0.0947376   0.1750911  -0.3682103  -0.0561285  -0.4483869
  -0.4586001   0.0370930  -0.8310096   0.4328552   0.2491762   0.0195477
   0.1624555   0.7484862   0.6349247   0.4437223   0.5733842   0.0181294
   0.2000918  -0.0502006  -0.1681067  -0.3531859   0.3475836  -0.8208756
   0.7068805  -0.2688224  -0.8037635  -0.0474376  -0.1912857   0.0672535
  -1.2288476  -0.0136256  -0.9094859   2.5698786   0.5374384  -0.2664380
  -0.2264638  -0.2123263  -0.1002028  -0.2844302   0.2956336   0.5425211
   0.5444579  -1.3798610   1.1411785   0.1877170   0.0015135  -0.0567953
   0.8790449  -0.2943091   0.2418055   0.6863648   0.2944286   0.1279774
  -0.1851018   0.1030366  -0.0962960  -0.2967873   0.0994436  -0.1882171
  -0.0144942   0.9144010   0.8890428  -0.0298465  -0.0049293   0.1191834
   0.2977511   0.3100819  -0.5747153   1.5756628  -0.4180707   0.3821803
   0.1303239  -0.0159392  -0.3678565   0.6366114   0.9414868   0.0795547
  -0.0361392   0.4552347  -0.6383055   0.1582336   0.1669991   0.2291773
  -0.0583789  -1.3915258   0.8096800  -1.2377621   0.1937152   0.2121098
   0.4077660   0.2309853  -0.3034602  -0.1228541   0.6798600  -0.3097995
   1.4725348   0.0017763  -0.5404371   0.0355237   0.1144918  -0.0566336
  -0.1291261   0.2675216   0.1790915   1.4232748  -1.5758827   1.0306707
  -0.2927513   0.2181612   0.1061642  -0.9052655   0.7921334  -0.2241140
  -0.0708572  -0.5648639  -0.2562888  -0.0737776   0.2391078   0.1350752
  -0.5142981   0.1707345   0.1270810   1.1315646  -0.2278400   1.7239843
   0.1528994  -0.0397371   0.1251589  -1.1147004   0.7079429  -1.1150629
   0.3473994   0.8341783   0.3392560  -0.2293566  -0.3522709   0.3429880
  -0.0868046  -0.5557799  -0.4713486   1.9469212   0.5139129   1.5444566
   0.0726568   0.1537224   0.1105534  -1.3485989   1.1409498  -0.0421883
  -0.3734320   0.1360494   0.8025131   0.0468892  -0.0365477  -0.2363915
   0.6778623  -1.1953778  -0.6209055  -0.4666410  -0.9929482   0.0608805
   0.0806881  -0.2195865   0.1590510   1.7978827  -0.2807738  -1.0088781
   1.1719334  -0.3997746  -1.1177831  -0.0135563  -0.0566439  -0.0900012
  -0.4877563  -0.1332894   0.3877725   0.2078316   0.1731301   1.3527912
   0.1850281   0.0449089   0.0086973  -0.7753213   0.8569810  -0.1720907
  -1.2298011   0.0489861   0.8255918  -0.0166047  -0.1009885   0.1432085
   0.4065416   0.9338709   0.0097160   0.8726283   1.0889509  -0.7554544
   0.1768035   0.2917496  -0.0526350   1.3762961  -1.0500904   1.3206197
  -1.1341931  -0.3410321  -0.4377468   0.2551034  -0.2754879   0.0944054
  -0.6460045   0.5829749  -0.6766144   0.2500982   0.9619707   1.3138895
   0.0914364   0.2143624   0.0555265   0.8520588   0.4218926  -0.5537632
   0.4644413  -0.1486766   0.3938398  -0.0655450   0.3880810   0.0014775
   0.3081400  -0.2180101  -0.0965186  -0.1694413  -0.7931232   0.2412645
   0.1334114   0.2476849  -0.2178440   1.3305316  -0.3248673  -0.6224256
  -0.6749762   0.4334938  -1.3996061   0.0775348   0.1003215   0.1868223
  -0.8737131   0.0328203  -0.0277647  -0.0972736  -0.2385297   1.8794793
   0.2700869   0.2557444   0.4140902  -0.2490158  -1.0676565   0.3483666
  -1.6315323   0.7998911  -0.4659771   0.2232084  -0.0293164  -0.1690355
   0.7519294  -0.6848606   0.3927217  -0.7876063  -0.3937682  -1.4155897
  -0.0338704  -0.0236842   0.1414939   1.1534860   0.4633970  -0.2037511
   0.0911505  -0.6215444   0.2676993  -0.1684668  -0.0550110  -0.1256803
  -0.3093605   0.1340560   1.1731734  -0.8413628   0.8396145  -0.1716462
  -0.0324879  -0.0572280   0.4910797   0.0825191  -0.5019924  -0.8270205
   0.8178703   0.1383008   0.9681434  -0.0239634  -0.0342865   0.1018259
  -1.5007868  -1.1240649  -1.5474868  -0.2295000  -0.4529538   0.2636443
   0.0879123   0.2775908  -0.1381789   1.9892771  -1.8965344  -0.8862822
   0.2487947   0.0806028  -0.0381731  -0.0021665  -0.1138943   0.1253419
   0.5123483  -0.6160210  -1.9742781  -0.6845787   0.1720658   1.4784522
  -0.0800878   0.1720376  -0.2463233   0.0165908   0.4510013   0.1896975
   0.6916921   0.5176899  -0.4131015  -0.0897893   0.2794140  -0.3347062
  -0.0722725  -1.1777928   1.0585709  -0.2986040   0.2769015  -1.0019519
  -0.0949132   0.3257164   0.2098346   0.7522320  -0.5639281   0.3236473
  -0.4902998  -1.4820681  -0.2285794   0.0695970  -0.2813126  -0.1068179
   1.1829853  -2.1738499   0.4687297  -0.2307287   0.5861165   1.3242779
  -0.1116794  -0.1075951  -0.3473308   0.4155222  -0.6233467   0.1441889
   0.2741081   0.1107263   0.0806264   0.1246641   0.1667352  -0.0258691
  -0.0110269  -0.0939320   0.4084102  -0.9294254  -0.2581468   0.6534994
  -0.1155050   0.1488222  -0.1731844  -1.2089260   0.6244358  -0.1584766
   0.6042051  -1.0025508   0.8249390  -0.0991293  -0.1539290  -0.3524803
  -0.7204251  -0.1949085   0.4828077  -0.2053264   0.0342424   0.0891321
  -0.2050668  -0.2735039  -0.3018657   0.2518617  -0.9644573  -0.5959190
   0.8016928  -0.3768178  -0.4602290  -0.3059184   0.0613524  -0.0817460
   0.4180701  -0.5421023   0.2138290  -0.8700955  -0.5306371  -0.1246768
  -0.0750671   0.1317259  -0.1849252  -0.5428630  -0.3540701  -0.6366671
  -0.1549172  -1.0330989   0.2864253   0.0372281   0.3784562   0.0588454
  -1.2167909  -1.1217514   0.6581173   0.9516901  -1.0396559   1.0512640
   0.2676328   0.0875790  -0.0507290   0.6674843   0.1066381  -0.3088567
  -0.9204060  -1.0241878  -1.1355954   0.2485073  -0.0710355  -0.3290028
  -0.0184792  -0.3273258   0.9835155   0.3077309  -0.2761500  -0.6954945
   0.1467857   0.2626137   0.1274754  -0.0260680   0.7199218   0.7899026
  -1.3811835  -0.8491352   0.2762946   0.5602277   0.0181606   0.2406672
   0.8113028  -0.6369259   0.8551898   1.5776694   1.0428103   0.1336153
  -0.0078456   0.2513078  -0.1032202   0.0933245  -1.2166345   2.1857078
   0.4561252  -0.5504048   0.1360991   0.2497573   0.0014305  -0.0773916
   0.9669593   0.2347135   0.9195385   0.0368719  -0.4285201  -1.0639198
   0.3520110   0.0473882   0.0431715   0.5618881  -0.1028930   0.0719447
  -0.5078727   0.7831178  -0.7485656   0.3195398   0.2134098   0.1145280
   0.5013473  -0.0081906   1.1129359   1.6411806   0.4104411   0.1071427
  -0.0901523   0.1434696  -0.0251277   1.1958976   0.8731871   0.8381411
   0.2324794  -0.0343796   0.1354570   0.1798727   0.1335027   0.0401858
   0.0406248  -0.5108729  -1.3816211  -0.6750207  -0.2520193  -0.4552863
  -0.2744989  -0.0927387   0.3258017  -0.3277586   1.3817243  -0.3156246
   0.1521823   0.3627862   0.6372260   0.0720962  -0.0300895   0.2391371
  -0.7063368   1.4170877   0.8317444  -1.0482914  -0.4633502   0.1032079
   0.0902107  -0.1511495  -0.5117779  -0.3298902   1.2808620  -0.9111244
   0.4458744   0.2271908  -0.7156177  -0.1376989  -0.2534953   0.0552703
   1.3501390   0.8865331  -1.1741404  -0.6556800   0.1584022  -0.2983572
  -0.1323854  -0.2761260   0.2384973   0.9272758  -1.1283964  -0.1655475
   1.8705691  -1.1981407  -0.7871397  -0.1796821   0.0245725   0.0484443
   1.9283546  -1.1082468   0.6613274   0.7647669   0.0213104  -1.0000745
   0.3407276   0.1342721   0.0129180   0.5853716  -0.2512363  -0.5559766
  -0.9604688   0.2703343   1.2022584  -0.0280705  -0.0666888   0.0668124
  -0.6875373   0.3325239  -1.4461533  -0.2924203  -0.3008140   0.1436734
  -0.0506979   0.2276924  -0.1645637   0.0067025   0.1295021  -0.5840235
   1.4119767   0.8254177  -0.8010715   0.2478009  -0.0714504   0.2287325
  -0.2487153   0.7746241  -1.3764999  -1.6741389  -0.7513269   0.2634421
  -0.0744893   0.2694563  -0.3547311   0.8818063  -0.1812726   0.9479552
   0.8107546  -0.7500879   0.4499744  -0.4212541   0.0646934   0.0051792
  -0.0841100   0.4999257  -0.0245557  -0.5581373  -0.4283069   0.8843358
   0.3125793   0.0271094   0.0075776  -0.7683032  -0.8969483  -0.1575786
  -0.0842414   0.2377416   0.4262400   0.0793107   0.4337860  -0.3012122
  -0.6482720  -0.0975879   0.2883057  -1.0184879   0.9172358   0.3691253
  -0.0596893   0.0719947  -0.2831892   0.4436869   1.1002463   0.4205777
  -0.0982513  -1.3892965  -1.0716330  -0.0376858  -0.2915002   0.0703616
   0.6046753  -0.0097358   0.1991353  -0.2681814  -0.4761453  -0.7726664
  -0.1089403  -0.2065849   0.0429486   0.1969563  -1.3221528  -0.9945693
   0.4760241  -0.1372904   0.7852881   0.1377010  -0.1504694   0.0600455
  -0.2505484  -0.7208594  -0.7281094  -0.1553323   0.3529631  -1.8503804
   0.0137833   0.1028000   0.0820748  -0.5302057   0.6533841  -1.3246399
   0.3907061  -0.4867377   0.7342515   0.3822336   0.2843631  -0.1423493
   1.2525562  -0.4529565  -1.7155794   1.3469065   0.3502834   1.1709843
  -0.0181381  -0.0997750  -0.0450312  -1.0257721   0.6697215  -0.5235246
  -0.0659101   0.2666113   1.0609239  -0.1240583  -0.1233399   0.2290702
   0.3201729   0.1962616   0.4163351   0.0427934   0.6063087  -0.6680037
   0.1154199   0.1481698   0.3504159  -0.5987062  -0.5410624   0.3122373
   0.2264204  -0.5385218   0.0541956   0.2980090  -0.0604348   0.1323687
   1.1289714  -1.1283089   0.0444900   0.9310601  -0.5746337  -1.1473379
  -0.0459173  -0.0632605   0.0828855   0.7820643   0.3709731   0.1907318
  -0.8112284   0.6496049   0.9443582  -0.1012775  -0.0057512  -0.4115521
  -0.2106558  -0.5363632   1.2274766  -0.2771090  -0.1981855   1.5663967
  -0.4168667   0.3123148  -0.2197210  -0.7158175  -0.2690974   0.3473624
   1.5564855  -0.8591044   0.7282465  -0.3196226  -0.1275852   0.0458750
  -0.8778789  -0.4574321  -0.2792798   0.4801144  -0.8223476   1.6622884
   0.1157388  -0.2408421   0.1618680   1.3150953   0.7455740   0.7814375
  -1.3890126  -0.8617242  -0.3960743   0.1986948   0.0538459  -0.3246725
  -0.4591519   1.3406678  -0.1512747  -0.0160768   0.0055757   0.6245252
   0.0922370  -0.0005322   0.2752136   0.3437858  -1.6579172  -1.2717038
  -0.8669743   0.2936105  -0.6716278   0.1059263   0.0250858  -0.0312951
  -0.4343670  -0.7715622   0.2004765   0.0771330   0.2444896   0.0213678
   0.2520860   0.0432499   0.1785283  -1.5083460  -0.1914849  -0.2590152
  -2.0793715   0.8313916  -0.3744710   0.1755133   0.0691690   0.0070395
  -0.0378814  -0.4130507  -0.5364531   0.7970475  -1.9024351   1.2790745
  -0.2934680  -0.3301642  -0.1294085   0.6510507   0.5194297   1.2479586
  -0.4371399  -0.3765892  -0.5440037  -0.2749867   0.1026765  -0.2721369
  -0.4985443   0.8800860  -0.3576447  -0.2129133   0.1639455   0.3871550
  -0.0565383   0.3356327   0.1487082   0.1222622  -0.9299705   0.4291717
  -0.8721101   0.1745394  -0.5225348  -0.1023387   0.0473373  -0.0134681
   0.0855896  -0.5559609  -0.5675164   0.2383732   0.6019707   0.2249094
  -0.1417249  -0.1224357  -0.0767324   1.8140883   0.3056497   0.3310303
   0.1877178   0.2832419  -1.3640329   0.0816595   0.1707837   0.0457026
  -1.5767058   0.2719675   0.9509738  -0.2801416   0.5566216  -2.3959251
  -0.0417505   0.2693184   0.0051542   1.6896377   1.4274609   0.8810753
   0.7860502  -0.1132494  -0.0355798   0.1119601  -0.0271610  -0.2226402
  -0.8887844  -1.4540819  -1.4299471   0.1602432  -0.4279658   0.5880238
   0.1917587   0.2751016   0.0342281   1.0660593  -0.2916350   0.1552590
   0.8587239  -1.0230660  -0.4726027  -0.0018918  -0.3997382   0.2721836
   1.7312371   0.4665305   0.5439043  -0.3780029   0.0239031  -0.7963473
  -0.1235078   0.2120137   0.0318211  -1.1398217  -0.6006647   0.7477439
   0.5753017  -0.2579579  -0.5661699  -0.1876114  -0.1289335   0.1335225
  -0.0577090  -1.1481764  -0.0211556  -0.5849494  -0.4302182  -1.3426594
   0.0220373  -0.4501463   0.1811186  -0.2001955   0.4481949   0.2987418
  -0.5606654  -0.2826833   1.5902153   0.2665822   0.2120161  -0.0482824
  -0.1042608   0.1160204  -0.8938270   0.0721697   0.3875822  -0.9303648
   0.3567576  -0.0660388   0.0265824   0.1970134   0.0469391   1.0942729
  -1.0622877  -1.6331042   0.4232694   0.1406698   0.2692393   0.3245512
  -0.5761683   2.0240371  -0.1818512   1.4530724   0.2984538  -1.0405932
   0.2662081  -0.3408131  -0.1189956  -0.4091678   0.0632469   0.2437818
   1.2417572  -0.3039343  -0.9195631   0.1937878  -0.1553706   0.0008325
  -0.9189650  -0.9143247   0.3991834  -0.1095663   0.1637957   0.9828058
  -0.0522332   0.0792642   0.2251076  -0.6914716  -0.4390063  -1.6111242
  -0.0844685  -0.1232475   0.2120149   0.1651313  -0.1013579  -0.0279823
  -0.2911921   0.6057467   0.3166257   0.4799604   0.2649404  -0.6848177
  -0.2871300   0.1998036   0.2309360  -1.0209638  -1.2760342  -0.2157027
   0.3623454   0.3516904   0.7847547   0.2334562   0.0639017   0.1391798
  -0.0647492  -0.1882284   2.3060853  -0.0433190   0.6590832   0.4818064
  -0.0210658  -0.1491189   0.1096834  -0.7469128   0.6652061  -0.0431420
   0.6787562   0.1246680  -0.3219614  -0.3204088   0.0520375   0.2239289
   1.2042574  -0.9752921   1.2952606  -0.1507915  -0.1880668   0.4106275
   0.1305111  -0.1601136  -0.0226001  -1.5758578  -0.6441155   0.3107133
   0.1663023  -0.6983340  -0.0501997  -0.0814650   0.2520705  -0.1599692
   0.8924796   0.1692207   0.4477667   0.7830497  -0.9951503  -1.0711740
   0.0369898   0.1848409   0.1392053   0.2478939   0.3047085   0.1479701
   0.5504126   0.2727513  -1.2639086   0.1151862  -0.2615286   0.0606799
  -0.1741227  -0.4348770  -0.0176433  -0.1275349   0.5562469   0.3162756
   0.0188707   0.0149303   0.2437184   1.6222027  -1.0230525  -0.9045912
  -0.5112338   1.0838291  -0.6374496  -0.1207440  -0.0307528  -0.2914599
   1.7272638  -1.5607590   0.1734735  -0.3911629   0.4861329  -0.1689393
   0.0236078  -0.3340950   0.0946561  -0.6293364  -0.7888416  -0.5635601
   1.6751179   0.4596573  -0.5225769  -0.0043591   0.1310467  -0.1403399
   0.7576211  -0.9155602   1.2389763   0.1980722  -1.1167180  -0.9067682
  -0.2119046   0.1685105  -0.1539378  -0.1832581   1.8084787   0.2180648
  -0.2505404   0.4551698  -0.6031624  -0.1940131  -0.1181136  -0.1427898
   0.3921837   0.5697508   0.1807567   0.5507619  -0.2564196   0.8183853
  -0.2045362  -0.2080349   0.0944404   0.0803745  -0.5393194   0.8290369
  -1.4642830  -0.7760437  -0.5091477   0.1408072  -0.1241518  -0.0670028
   0.9661698   0.3049615   0.7774949  -0.3182948   0.4669755   0.7349575
   0.1232831  -0.3538678   0.2904799   0.5569756  -0.9094584   0.0390233
  -0.2217843  -0.1908715   0.2826811   0.0802809  -0.2878151   0.0263264
   0.3231550  -1.3186717  -0.1458501   0.6460442  -0.1879582  -0.2332347
  -0.3278073   0.0421353   0.0058902   0.3613029   0.0018178   0.2439565
  -0.2709197  -0.3143048  -0.4933263  -0.1893808   0.2518993  -0.2054681
   0.4918600  -0.7672603   0.5308550  -0.4836932  -0.0680602   0.3488766
   0.1147156  -0.2729438   0.1122629  -0.6899333  -0.9593125   0.3656830
   0.9852333   0.9568814   0.7870001  -0.0179112  -0.0730334   0.0189857
  -1.1863013   1.1256642   0.2974950   0.0252157   1.3405692  -0.1388556
   0.1706116  -0.0105122  -0.3065789   0.5759552   0.0761670   0.6858100
  -0.6336646   0.7410782   0.2093571  -0.0383994   0.1593183  -0.0367217
  -1.1517855   0.0001297   0.9181559   0.6468373   0.4119321   0.8657487
  -0.0771435   0.0590644  -0.3075338   0.4518650  -0.4754566   0.1862068
   0.3551330   0.7409858   0.3495417  -0.1826899   0.1704511  -0.0922326
   0.1292336   0.5447139   0.4168221   1.0901103   0.3358488   0.6580705
   0.0519648   0.2150938   0.0435424   1.0696140  -0.4846411  -1.3652553
  -0.6984963   1.2343606  -0.6766107   0.1984450   0.1051232   0.0645940
   0.2337800  -0.5981690   0.6736742  -0.0903965  -0.0121044  -0.0412414
   0.0725107  -0.1509066  -0.1438847  -0.5340741   1.0337262  -0.1516445
   0.3498440   2.0122225  -1.5498932   0.0646586  -0.0389793   0.0701384
   1.0931852   0.0612167   1.1960491  -0.1016422   0.5014412   0.5372101
  -0.3262005   0.2208191  -0.0584296  -0.4757311   0.6127704   1.7594097
  -0.0647236  -0.7605123  -0.2143778  -0.0164297  -0.3243307   0.2929134
   0.0518101  -0.2570857  -0.7276210  -0.9784642   0.4908756   1.3355412
   0.0884332  -0.0189462   0.3274721   0.6487619   0.9159593   0.1515595
   1.0361865   0.1454283   1.1389480   0.0307881  -0.4082251  -0.2447844
  -0.3631740  -1.0946897  -0.8180064  -0.0378605  -0.6055019  -0.1960778
   0.0206406  -0.3461289   0.1425375  -1.9710528  -0.6315186  -1.0689195
   0.8575899  -2.1747568  -1.7211969  -0.1214004  -0.3145761   0.0874310
   1.4815265   0.0071597   0.2009063  -0.2810983   0.0362623   1.1721804
  -0.1429143   0.2036867   0.0071232   0.3663009   0.2454905   0.2221880
  -1.1785150   0.3476246  -0.3439305  -0.4371775   0.0843788  -0.2732569
   0.8705522   0.5490160   1.3173469   0.0769784  -0.0121373  -0.2567134
  -0.1855386  -0.0465949  -0.0350176  -0.2623215  -0.6520169   1.3071413
   0.1483336  -0.8145029  -0.6770149  -0.2373169   0.2141045   0.3166211
  -1.1710608  -1.0914891  -0.5693106  -0.5218874  -1.0470936   0.2880202
   0.2148428  -0.2347722   0.1678441  -0.0294724   0.1709683  -1.1445541
   0.2629197   0.4878873  -0.9879041   0.1783970   0.1584464  -0.0519604
  -0.4410691   1.3862266   0.2073886  -1.2897028  -0.5225616   1.7731259
  -0.1641521  -0.1836849  -0.0778550  -0.6516898   0.5363289   0.9559566
   0.2596257  -2.7020995   2.0171498  -0.1324073   0.0784987   0.2667096
   0.2121146   0.6033329  -0.1156430  -0.5016066   0.9366592  -0.6023189
  -0.1667547  -0.2775982  -0.0797461  -0.1070052  -0.7553547   0.3379470
   0.3404465   0.5812937   0.5099126   0.0334852   0.0856359  -0.2415140
  -1.9846278   0.0343684  -0.7001903   0.7632562  -1.0360182  -0.2233124
  -0.0149948  -0.0199937  -0.0475996   0.3864010   1.2658548   0.1971910
   0.8989077   0.8151514   0.2057033  -0.0516626  -0.0952249   0.0361914
   1.1187769   0.6662406  -1.5885815  -0.1994193  -0.4890482   0.1708720
  -0.0406934   0.0516325   0.1141597  -0.7620272  -0.0999643  -0.1047337
   0.8002336   0.1154640  -0.5980326   0.0922888  -0.0511001  -0.3666987
  -1.1774713   0.6920772  -0.0252776  -0.2227948   0.1995627   1.0562914
   0.0611161   0.0805674   0.0791131  -0.0678829   0.8375571   0.1815848
  -1.4960876   0.8639209  -0.1352977  -0.3932484  -0.0501525   0.1323894
   1.0554053   0.8746676   0.2709541  -1.1347112  -0.4671526  -0.0114355
  -0.5093199  -0.1202620  -0.3506987  -0.7054709   0.9941977  -0.4331338
  -1.4897151  -0.9986465  -0.2731595   0.3202771   0.2541121  -0.0325121
   0.9642117   1.6451231  -0.5756729  -0.5314306  -0.2264760  -0.7345029
   0.2046999  -0.3980732  -0.0228901  -0.8308070   0.6603953   0.3206820
  -0.1036111  -0.0645475   0.2403488   0.0194375   0.1946663  -0.0733872
  -0.0141655   0.6795366  -0.1312253  -1.0339402  -0.4803817  -0.4130038
   0.0127551   0.2930603   0.0473402   1.4492508   0.9119169   0.6307849
  -0.9933547  -0.9683878   0.3213264   0.2694791  -0.0936712   0.0604897
   0.6635785   0.2464161   1.1797449   0.0141256  -0.0722042  -0.0349559
   0.1257325  -0.0753958  -0.0402713   0.8298203   0.1500860  -0.1809661
   0.3477073   0.9539328  -0.4555775  -0.3257812   0.1431097   0.0083764
  -2.3774770  -1.0371263   0.2772406  -1.1030141  -0.6892954  -0.5562466
   0.1130523   0.0697741  -0.2661871   0.5293174   0.5458064  -0.2116335
   0.8786451   1.0476024   0.6805131  -0.2142808  -0.1690737  -0.0906426
  -0.1149669  -0.3469483   0.3951900  -0.1297924   0.4051717   0.0853467
   0.0106958   0.3075517  -0.4250361  -0.1308263  -0.7951119   0.5852172
  -1.4141718   0.6989398  -0.3449103  -0.0909956  -0.0502669   0.0714933
   0.6045998  -0.2201559  -0.4153746  -0.4792629   0.1746081  -0.0269212
   0.1128544   0.0931820   0.2104248  -1.3420016  -0.7739335   1.1015615
  -0.1267173  -1.8804922   0.2619716  -0.0773509  -0.1153836  -0.1748564
   1.1237947  -1.2590118  -0.2135916  -1.5995060   0.3169473   1.0217975
   0.1640464   0.0438923   0.1060446  -1.0940531   0.2578277  -1.3725648
  -0.2330152  -0.6313153  -1.0700246  -0.0382815  -0.1955155  -0.1419818
   0.8463904   0.4194947  -1.4372872   0.1245004   0.5723052  -0.1178808
  -0.0519239  -0.0656500   0.1586801  -0.5080641   1.0430663   0.8825314
   0.4868362   0.0380972  -0.5836830   0.1279834  -0.0714196  -0.1608116
  -1.6126591  -0.1468819   0.3246573  -0.4096892   0.9263305  -0.1420405
   0.0869520  -0.0844594  -0.1462135   0.9002725   0.4846147   0.1928320
   0.0905765   0.8192513   0.9981878   0.1158948   0.2674546   0.0794800
  -0.5447056  -1.2191145  -0.4431256  -0.2311323  -0.2178500   0.8468145
  -0.0099063  -0.0313117   0.3264831   0.6017396   1.1424285  -0.0045423
  -0.5603971   0.4488708  -0.6994760  -0.0631809   0.1821934   0.0752894
  -0.3891214  -0.9612105  -0.2266489  -1.6652500  -0.6106765  -0.8573947
   0.1044664  -0.0465752  -0.0593595   1.3667324  -0.2971013   0.0864466
  -0.3943927   1.3403502  -0.8085152  -0.3345014  -0.2066612   0.2456318
  -0.8780066   0.1525214   1.7568660   0.7448167   0.7228199  -0.1666907
  -0.0456024   0.1612153   0.2225960   0.2994320   0.5558609   0.5054780
  -1.1861709  -0.5651786  -0.9675952   0.2529625  -0.2356254  -0.2782231
  -0.2548681   0.5194106   1.1837203  -0.2852579   1.2551415   0.1139973
   0.2723702   0.1872760  -0.1861914   0.5859063  -0.0653716   0.1788144
  -0.6095460  -0.0251321  -0.5580933   0.4416523   0.0791605   0.1933580
  -0.0302541  -1.4868783   0.6629513   0.1122832  -1.0926839  -0.6690264
  -0.0011939   0.0631757   0.1897369  -0.3124637   0.7575015   0.1410060
   0.7384693   0.1255110  -0.5302772   0.0191175   0.0601250   0.3000861
  -0.0023700   0.4610290   0.4551357   0.6429155   0.7207031  -0.0895594
   0.1217058  -0.1987230  -0.0973092   0.3801613  -2.2388420   0.6145276
   0.2342989  -0.1294350   1.2780373  -0.0762746   0.1573593  -0.0187147
  -0.2258014  -0.5302932   0.3713926   1.1648741  -0.0978452  -0.6875650
   0.0255064  -0.1023078  -0.0813189   0.1422515  -0.8315909   0.7391968
  -0.2317702   0.3192118   0.3983082   0.2703988   0.3403546   0.1232740
   0.0799515  -0.9711429  -0.5363954   0.1608150  -0.1363300  -0.6588433
  -0.3112701  -0.0305401   0.1810533  -0.9210592  -1.5055852   1.4419716
  -1.4344011  -0.5053873   0.4037094  -0.1518144  -0.1593259  -0.0118924
  -0.1304732  -0.8521400  -0.7761107   0.3184575   0.0732087   1.6351899
   0.3024680   0.1230997  -0.0267698   0.0463853   0.3774777  -0.4624012
  -0.1704353  -1.0718265   0.4457242  -0.1047986   0.0073510   0.0688039
  -1.3985172   0.6126688   0.0704629   1.2110636   1.0726990  -0.3582273
   0.2253970   0.4025215   0.3247169   0.2319219   0.6336183   0.7596615
  -0.6640218  -0.2109564   0.1582960  -0.1070692   0.2468532   0.0948130
   1.0162828  -0.7344074   0.8326765   0.0440549  -0.8620837   0.0511291
   0.0390010   0.2124335  -0.0649821   0.5284102   0.3408153  -1.0883252
  -0.5597195  -0.4986578   0.5962739  -0.2981197   0.0619622  -0.1607830
  -1.8065268  -0.8013015  -0.2603072   1.2809183   0.2844857   0.4024611
   0.2429190  -0.2033019  -0.0365568  -0.3568335  -0.7436323   0.6892821
  -0.4867210  -0.3291031   0.0347719  -0.0582767  -0.1049096  -0.0879866
  -2.3364602  -1.3131739   0.5828805   1.0967468   0.4738185   0.2722516
  -0.4506696   0.0511851   0.2223025  -1.8916096  -1.6604603  -1.4226304
   0.3725092  -0.6288190   0.5999198  -0.1534063  -0.0969540   0.1120954
  -0.7095714   1.3577689   0.0760899   0.6501835  -0.5976789  -0.7094041
  -0.2348555   0.2022591   0.1172079   0.7206220   0.1786184  -0.2215385
  -0.7721371  -0.1738630  -0.3400968  -0.0344481  -0.0618280  -0.1769466
   0.7875123  -0.3737674  -0.4528350  -1.4742451  -0.1815322   0.3749117
   0.4622263   0.1479372   0.0046113  -0.2435141  -0.0599942  -0.8230532
  -0.5875479  -0.3010583   1.1076051   0.1320470  -0.2593442  -0.1327740
   0.8261500   0.2501053   0.9934538  -0.9675680   0.1698755   0.4304133
   0.0272445   0.2385273  -0.0927355  -1.0730512   1.1679092   0.7402293
   0.7309220  -1.1326506   0.2926510  -0.1913679  -0.4329065   0.3130144
   1.1998039  -1.0708087  -0.5650244  -0.4092837   0.0619457   0.5744717
   0.0746343   0.0129996   0.3075856   1.0522244   0.6384463  -0.9600191
  -0.5778481  -0.2298687   0.0307344   0.1691519   0.2020172  -0.1914604
   0.7523124  -0.7627824  -0.7329678  -1.4849784   0.3518183  -0.6071555
  -0.0512014   0.1957887   0.1701440  -0.1848074  -0.8745732   1.0044251
   0.9041250   0.4764351  -0.9094245   0.2396032   0.2298114  -0.5100446
  -0.8543427   0.2377480   0.9246232   0.9750674   0.7593956   0.1708892
   0.2553247  -0.0432885  -0.0206408  -0.5938673  -0.1737171   0.1358390
   0.8763830   0.0320710  -0.3225074  -0.1487397   0.1483761  -0.0835083
  -0.1209208  -0.4392968  -1.0771295   2.2290561  -1.1709877   0.8131846
   0.1830172   0.2102000  -0.0404372   0.0176741   0.5750235   1.3895585
   1.2854305   0.1494558   0.6661676  -0.1062432   0.1275908  -0.0213367
   0.6400741   0.4303508   1.2892383  -0.4411391   1.2614397   1.3660677
   0.1783915  -0.2176419  -0.1027241  -0.9451486  -0.2720597  -0.1102209
  -0.4926218  -0.1337105   0.5812567   0.1242804   0.2130759   0.1907529
  -0.6556077  -0.1226033  -0.4000209   0.3700941  -1.0216934  -0.8194687
  -0.1548319  -0.0431624  -0.0658757  -0.1331053  -0.0026812  -0.1527685
   0.5460989  -0.4175624   0.8781431  -0.1349380   0.3765911   0.0489335
  -0.1279633  -0.4684964   0.8841857   1.3698979   0.7098198  -1.2050282
  -0.2697442  -0.0274967  -0.2870624  -0.6392091  -0.1789832  -1.0034995
   0.9440424   0.3497163  -0.2446135  -0.1479447   0.0876265   0.3204854
  -1.4539381  -1.0074451  -0.3028538  -0.4419816   0.5414382   0.0207896
  -0.3311283   0.0219276   0.0059720   0.0570884  -0.8095631  -0.0180766
  -1.3750672  -0.9561961  -1.0552565  -0.0718190   0.0925879   0.2403710
   1.2004160   0.0872427   0.5594412  -1.0834523  -0.6885639   0.1701470
   0.2865991  -0.1322806  -0.0074870   0.5126269  -0.8194638   0.3315135
   1.0922930   0.1442495   0.3671714  -0.0610502   0.1094078  -0.1393897
   1.2857734  -1.2463893  -0.2708728   0.1638428  -0.6333312  -0.9657692
  -0.0142161  -0.1898635   0.1951885   0.7100689  -1.8268657   0.6175800
   0.1576646   0.2827542  -1.3834143   0.2073858   0.1357907   0.0835156
   0.6645377  -0.7812114  -1.0360713  -0.2470706  -1.4380768  -0.3106334
  -0.1994366   0.3552017   0.0787772   0.6687253  -0.5512249   0.7956245
  -0.0637737  -0.8372445   0.7334392   0.0273306  -0.0055007   0.2336620
   0.8761915   0.3381263   0.9424877   0.2086543  -0.7398305  -0.5220612
   0.0857015  -0.0017468  -0.0481164   1.1795585  -0.6417985  -0.6059927
   0.2084403  -0.0538882   0.6280235   0.4991710   0.2835276   0.1213754
  -0.7459780   0.0966822  -0.4052157  -1.1196855   0.4652711   0.1045898
   0.0256578   0.1778781  -0.0803333  -0.4046257   0.6040588  -0.7497865
  -0.2799461  -0.0776462  -0.9455167   0.1294933  -0.0990629  -0.0339679
  -0.9044841   1.1135236   0.3391905   0.5357145   0.0197811   0.4878428
   0.3910977  -0.0314535  -0.1878984   2.2103873  -0.0827980  -1.7805162
   0.7095497  -1.0514825   0.1816290  -0.3092810  -0.0776247  -0.1473306
   0.3479119   0.3452479  -0.7667844   0.3752518   0.1199767  -0.4786113
   0.3930096  -0.1251082  -0.0698881  -0.6877189  -1.0840309   0.1128700
   1.2211436  -0.5144533   0.1524362  -0.1041961   0.0605958   0.0566827
   0.6635299  -0.8778109   0.0336838  -0.7499685  -1.3131825  -0.2763544
  -0.2387009  -0.0193774   0.2798785   0.9893965  -0.9403791  -0.7599778
  -0.7095746  -2.4107241  -1.0550613  -0.0638501   0.1690874  -0.3715984
  -0.9600730  -0.5202625  -0.5317812   0.1146667   0.7851683   1.0109327
  -0.1141634   0.5428815   0.1391586  -0.2167553   0.9867589  -0.6051830
   0.2093527   0.2408250   0.3161140  -0.3502735   0.1460083   0.2297617
   0.5697484   0.9714997   1.2638960  -0.4639237  -0.1232634  -0.3804152
   0.0559475   0.1680042   0.0782569  -0.4145461   0.6997014   1.2128677
   0.8431388  -0.3063935  -0.7765551   0.0193635   0.1566657  -0.0520848
   1.1526725  -2.4778924  -0.0002715   0.1278444   0.4526324  -0.9488365
  -0.4319310  -0.0066978   0.2151671   0.2127505  -0.6576342  -0.9762444
  -0.2165778   0.3636742  -0.7457675  -0.0744887  -0.3474935   0.2092676
   1.0560080  -0.3333899   0.5252336   0.2021367  -0.2036610  -0.1613132
   0.0919500   0.1966801   0.1456267   1.0796315  -0.2754332  -0.5959093
  -1.1428634  -0.9561731  -0.3565300   0.0929853  -0.1245516   0.1757543
   0.0911872  -0.4941599   0.1999956  -1.4253309  -1.0422705  -0.4023726
  -0.1636392  -0.0371099   0.0076868  -0.3419958  -0.1140080   0.2597867
   0.2851304  -0.7257706  -0.2835315   0.4110142  -0.0008176   0.1392973
  -0.0767137  -0.1310487   1.0123111  -0.5188330   0.3447945   0.7245131
  -0.0042128  -0.4570924   0.1730824  -2.2597452   0.9054971   1.3496111
  -0.1843738   0.4518268   0.0640363  -0.2340282   0.1130623  -0.2778669
   0.4482790  -0.4814820  -0.0074250   0.2619142   0.1895314   0.3272198
   0.0484053  -0.0621615   0.0497586   0.1436248   0.1867658  -0.5566677
  -0.6025472   0.6918267  -0.6473263   0.1977699  -0.0839005   0.1574098
   0.3551906   1.0143822   0.6668015   0.3601077  -0.3213170  -0.5101656
  -0.2044863   0.0845937  -0.3272971   0.8543863   0.8084507   0.2498445
  -2.7380591   0.6557607  -0.6458810   0.4805759  -0.1832166  -0.2606836
  -0.6288542  -0.2586762   0.2482083  -0.2972623   0.9547340   0.1014409
   0.0723627  -0.0306677  -0.4551737  -0.0935104   0.4886213   1.4111967
  -0.4969641   0.6452875   1.0370757   0.1805274  -0.4454364   0.1151533
  -0.7408575  -0.8668924  -0.2960207  -0.5555616   0.0648817   0.0622113
  -0.0287685  -0.0978787  -0.0777541   0.0786625  -0.1180354   0.7831699
  -0.2791918  -0.7564147  -1.1648011  -0.0882179   0.0251924   0.3601850
   0.5469733  -0.2966100   0.0633084  -1.9051365  -0.2097074   0.2304403
   0.1041913  -0.1750721   0.1091935   1.0137531   0.4219633   0.1965658
  -0.4068272   0.4590208  -1.2714777   0.0660624   0.2194969  -0.1407126
   0.1959847   0.0376797   0.0783131   0.2132495   0.1037548   0.5250339
   0.0125388   0.0550849   0.2450483  -0.3520642   0.4955341   1.0362653
   0.0635314   0.1644446   0.7097390   0.0186481  -0.1874553  -0.2381359
  -1.2588542  -0.2353505   0.1845557  -0.4666770   0.1438778   0.1557589
   0.1884834  -0.1183844   0.3763204  -0.4517558   0.3026840  -0.1275911
  -0.7231707   0.7345911  -0.3817919  -0.0290023   0.0058039   0.2006075
  -0.2466741  -0.6468481   0.7560946  -0.1278672  -0.0270052   0.0235028
   0.0219658   0.0228118  -0.1568227  -0.2640308  -1.3261062   0.6065951
   0.0257509   0.5046865  -0.6214465   0.1025168   0.1898490   0.0744500
  -0.9356652  -0.2526569   0.6155715   1.3887719   0.1527242   0.3231502
   0.0280056  -0.4594972   0.1093435  -0.8060115   0.2987523  -0.4099508
   1.3590801   0.4056693   0.1001303   0.1758509   0.1628774   0.1280144
  -0.4140091  -0.8303096  -0.0958288   0.8993270   0.1720977  -1.1902404
  -0.0796114  -0.1882209   0.2158665   1.0513299  -0.6066286  -0.0419897
   0.6344796   0.6490013   0.3836043  -0.4283278   0.1102457   0.0486045
   0.0785342  -0.1465851  -1.0473294   0.1866333   0.4067659   0.3815547
  -0.0006329  -0.0553779  -0.0818803   0.1538824  -0.6371197  -0.2298205
  -0.2825989   0.2022102  -0.2586629  -0.0749428  -0.2445314  -0.0662272
   0.9176536  -0.7212864  -0.2777674  -2.1007507   1.0787782   0.0793411
  -0.0778827   0.1332151   0.0602203   0.2938130  -0.4556098   0.2970126
   0.6873545   0.4727211   1.1706793  -0.2577775  -0.1592898  -0.1775259
   0.5134180   0.7106926  -1.5262390  -1.2517117  -0.1389431   1.3501107
   0.2915963  -0.0124685  -0.2556880  -1.1570771   0.8213213  -1.3205476
   0.1378081  -0.8425881  -1.2408730  -0.3351597   0.0234975   0.2066012
  -0.8098322  -0.3310132  -1.1640134  -0.0290767   0.3367818  -1.0642662
  -0.3697768  -0.1172346  -0.0737144   0.2731104   0.9824376   0.5521053
   0.9186159  -1.7169998  -0.8712370   0.1368625   0.1354348   0.1972939
  -0.5067136  -1.7240019   0.2485547   0.3104812  -0.4758541  -0.2989382
  -0.0499049  -0.2229741   0.0182931   0.9876685   0.7759908   0.3834332
   1.3197910  -0.0180721   1.6919967   0.2082991   0.0207138   0.2390434
  -0.5746809  -0.0436534  -0.0367152  -1.1599404  -0.7180095  -0.3181397
   0.5656798  -0.2150430  -0.0121136  -0.1918983  -0.3467819   1.2156894
  -0.1823963  -0.9976484   0.3918908   0.2719045   0.3462822  -0.1612197
   0.1824783  -0.0811684  -0.1992413   0.3972051  -0.1799337  -1.1027348
  -0.0862293  -0.0864798   0.2670584  -0.0677672   0.0971068   0.3843860
  -0.1188718   0.4791286   0.9382824   0.0935978  -0.0916588   0.2384536
   0.6435258  -0.0484618  -0.0278622  -0.3914796   0.0511107   1.0480630
   0.2463083  -0.0701621   0.0418145  -0.8541958  -0.2726810  -0.2035134
   0.3419255  -1.0961127   0.0415264   0.1479666   0.0121262   0.1631405
  -0.1522189   0.0630478  -0.0821406  -0.9502334  -1.0681388   1.1709488
  -0.2903951   0.1905122   0.0013380  -0.3183862  -0.5490113   0.2969398
  -0.0688026  -1.3110389  -0.0284636  -0.0900770  -0.1536022   0.0313019
  -1.3951781  -0.7642952   0.2043685  -0.6429176   0.0301922  -0.2350542
   0.1465751   0.1367406  -0.0463811   0.4381345  -0.4310929   0.1423360
   1.2066339   0.0998360  -1.0256342   0.1192466  -0.2198025  -0.0849996
  -0.1148287  -0.0876110  -0.7466301   0.3010217  -0.4194419   0.8609859
   0.0880317   0.0173516  -0.3370530  -0.1123252  -0.5147386   0.1771051
  -2.2212455  -0.4599171   1.0470293   0.0298594  -0.2745918   0.2500573
  -0.1359073  -0.4967838  -0.7819394  -0.4522369  -0.0133268   1.3528350
  -0.0653699  -0.3319126   0.1460364  -1.6061382   0.7089528   0.0520898
  -0.4169300   1.4543485   0.0795831   0.4198531   0.1255835  -0.1997107
   0.7605444  -0.2651825  -0.9627253   0.1596450  -0.2499509  -0.6352145
   0.0216966   0.1086119   0.1105605  -0.1539427  -0.2048441  -0.9246430
  -0.6136107   0.4942897   0.4706877   0.1213188   0.0704204   0.1205785
  -0.9233093   0.4839193  -1.1122079   0.7813218   0.1269025   0.0412304
   0.2056801  -0.0183996  -0.1588878   0.0902054  -0.4333302   1.1403970
   1.1611424   1.8475079   0.8870796   0.0232631   0.2659484  -0.4118516
  -0.4189779   1.1392006  -0.7825670   0.6230895  -0.0817380   0.8976947
   0.2164974  -0.2658456  -0.0635788   1.6212081  -0.6629845  -0.0899411
   1.2921923   0.5175548   0.0790420  -0.0807142  -0.2122811   0.0407614
  -1.2489480   0.1260756   0.2679655   0.2660425  -0.2115707  -0.1677344
   0.4617120   0.1715014  -0.0261245  -1.4336454  -2.0941800   0.3246075
   0.8247748   0.6621213   0.2041488   0.3113348   0.1396615  -0.0303286
   0.5421932  -1.5091231   0.4792937   0.2589606   1.2953265  -0.3539840
   0.0892373   0.2439917  -0.1165192   1.1069387  -0.4273812  -0.5519817
  -0.7213516   1.0868333  -0.5140242  -0.2274461   0.1753631   0.2880813
   0.1434894   0.4749273   0.7483638   0.4233818   0.1805384  -1.1600170
  -0.1497854   0.3638875  -0.1556814  -0.4367660   1.6639669   0.5025575
  -0.4005211   0.3704213  -0.0026787  -0.0786609   0.1469539  -0.0355238
   0.8565050   0.8067803  -0.1545836  -0.8729069  -0.7535936  -0.5803443
  -0.2107058  -0.0073783   0.1347551   0.4594613   0.0676758  -0.4803866
  -1.4815042   0.3004921  -1.0556675  -0.2624776   0.0017808   0.1603566
   0.6680957  -0.3036553   0.0756453   1.3170319   0.7015217   1.3274362
   0.1244760  -0.2033044  -0.0315537   0.1999772   0.8800085  -1.3702422
  -0.7947515  -0.9449610   0.6409864   0.0419915   0.2590274   0.0569437
   0.7096033  -0.3326620   0.9518870   1.0182465   1.0942790   0.1229328
   0.1667305   0.2674650   0.2260405  -0.9078631  -0.3552083  -1.5045660
  -1.6541754   1.3477330  -0.4939491  -0.1518117  -0.2929768  -0.0007839
   0.0212074   0.9841556  -0.7639317  -0.4837426   0.5497377  -0.9164519
  -0.0269852   0.1275573  -0.2368690  -0.8664360  -0.0146729  -0.7251944
   0.2274066  -0.6716753   0.0324348  -0.1911722   0.2230758   0.3070320
  -1.4041670   0.0213446   0.0631014   0.5796269   0.7303840  -1.3017155
  -0.1396159   0.2073836  -0.3064415   0.3638959   0.3714263   1.0826197
  -1.1177590  -1.5816961   1.3831315  -0.2345484   0.1096427  -0.0166587
  -0.8936495   0.2470041   0.8370271  -0.0827925   0.3038931  -0.3876281
   0.0806957   0.0662319   0.1797955   0.4091478  -0.9576092   0.6118227
  -0.5935661  -0.1315481  -0.5875212  -0.0004951   0.1214839   0.2536133
  -1.1358806   0.7933617  -0.1922397  -0.5752261   1.7592618  -0.8744874
   0.1647138   0.2984389   0.0946879  -0.5735866   0.4676797  -0.3033232
  -0.8756176   0.5304691   0.7349737  -0.0593487   0.0158677  -0.1029782
   0.0450651   1.1857493  -0.1519915  -0.2241217   0.2745601  -0.7108360
   0.1378889  -0.0684697  -0.2774968  -0.4041324   0.7084490  -0.1641499
   0.2303760  -1.3631018   1.4961129  -0.4047439  -0.1344109  -0.2469365
  -0.9559155  -0.2059412   0.0630441   0.3160318   0.5254036   0.3227661
  -0.4002713   0.1436742  -0.2241225  -0.0901104  -1.0554420  -0.8670333
   0.4512895  -0.6472185   0.7083772  -0.2331786   0.2333044   0.0082498
  -0.0473451   0.6213522   0.5622890  -0.1559174  -1.5340319  -0.0841245
  -0.0065693   0.1666816  -0.1371915  -2.1010773   0.5456518   0.7477066
  -1.2320148   1.3208216  -0.2694296  -0.0332603   0.1482191  -0.1147915
   1.5661873  -0.0858953  -1.2241271  -0.6170873  -0.5518990  -1.1132759
   0.2755468  -0.2281850  -0.0332429  -1.3492042  -0.3744007   0.3486054
   1.4278263   0.2569166   0.3880308   0.0584570   0.0303030   0.0948618
   0.2880617  -0.5081902   0.9252501   1.0954416   0.4373088   0.0183278
   0.3867883   0.3645294  -0.0048258   1.7903823  -0.4508483  -1.2294756
  -0.3496153  -0.2736563   1.7151846   0.2087285  -0.0382603   0.0438486
  -0.3221792   0.4750299   0.3774371   0.3244912   0.8016725  -0.7238882
   0.1919459  -0.1050259   0.1960644   1.6910076   0.6767777  -0.2321661
   1.0884513   0.4533896  -1.0302851  -0.1619400   0.1423408   0.2757911
  -0.7718891   0.8185910   0.8425514  -0.1367370   0.5778151  -0.9998249
   0.3177935   0.3074123   0.1571413   0.1405301  -0.3499631   0.2852425
   0.3020066   0.6230398  -0.8771301   0.0471326  -0.3997102   0.0553042
   0.8300966  -0.1518981   1.2522521  -0.7199660   0.0339519   0.6685382
  -0.0278119  -0.1404655  -0.0997893   0.8821020  -0.0436089   0.9439079
  -1.6501671   0.2296599  -0.3295350  -0.1904581  -0.3721865   0.1796333
   0.0637991  -0.5126210  -0.7877748   0.1770453   0.4722777  -0.5804444
   0.1521359  -0.2582419   0.2052770   0.8426311  -0.7206459   0.2078935
  -1.4785955   0.6028202   0.9105493   0.1865966   0.0033167   0.1012836
   0.4265567   0.9996670   0.2997067  -1.2581218  -0.6582685  -1.2451107
  -0.2458415  -0.2084963   0.0070527   1.5050953  -1.0577758   0.3933231
  -0.1069261   0.5986394   0.3931406   0.2874530  -0.0131141   0.2753431
   0.3429094  -0.9317199   0.1487447  -0.0412652   0.1867263   0.3749564
   0.1667083  -0.0235527  -0.1472862   0.4583069   1.2811460  -0.1511619
   0.5663044   1.0023574   0.1042630   0.0422259  -0.0647309   0.0590532
  -0.9374686   0.1139407   0.1453058   0.9804507  -1.7234358   0.1854842
  -0.0196544  -0.3657768   0.0933314  -0.2993652   0.0085271  -0.1470623
   0.5607772  -0.4708978   0.7335942   0.1279286   0.0234012   0.0266699
  -0.4058743  -0.2307489   0.5330186  -0.2406898   0.9227677  -0.7204497
  -0.2908617  -0.1636391   0.1674881  -0.7406306   0.5635476  -0.5530197
  -1.5300781  -1.2661402   0.0834776   0.0644270  -0.1319845   0.1060683
  -0.8102266  -1.1734158  -0.7036107  -0.0898141  -0.3821485  -0.8123346
   0.3982767   0.2529937  -0.1166314  -0.6570775  -0.2116117  -0.3783303
   0.5307638   0.3481012  -0.0253298   0.0734363  -0.1507376  -0.1151042
   1.2447788   1.2706620  -0.9054613   0.0398061   0.2168500  -0.3106655
  -0.0068337  -0.3357634   0.0258409   1.5601206   0.9864269  -0.5365390
   0.0491707  -1.1839420   1.7856923   0.2010310  -0.1704944  -0.2574248
  -0.5516616  -1.8117458   0.2684114  -0.8945437   0.5711889   1.0606334
  -0.0324556   0.0583027   0.1561842  -0.5690374   0.4224516  -0.0700130
   0.1665991   1.6770526   0.7118735  -0.0954029  -0.2768878   0.3291410
   0.2682096   1.7269260  -0.0219511  -0.5885442   0.0758891  -0.8126041
  -0.0560645   0.0544595  -0.0778005   0.2395879  -0.2500478   1.2185450
  -0.2492215   1.1048807   1.2573213   0.2086303  -0.5167291  -0.1733316
  -1.4132559   0.2422275   1.7996516   0.1464064  -1.0849360  -1.1094375
   0.0152220  -0.1823775   0.1001979  -0.9172957  -1.2288359  -0.4056824
  -0.5826696   0.1530972  -0.9887700  -0.2208635   0.1480264  -0.1748509
   0.1507977  -0.0881571  -0.1162238  -0.2762908  -0.2326830  -1.6786738
  -0.3685704  -0.0165979  -0.1484930  -0.4020798  -0.4623429  -0.4609671
   0.6543607  -1.6789034   0.0928795  -0.0351833  -0.0670540   0.0649921
  -1.3244768   0.2759727   0.4077794   0.6330040   0.7224252   0.1781460
   0.4121011  -0.1663912  -0.0205532  -0.4331712   0.7901637  -0.6902565
   0.7894483   0.0831547  -0.6559881   0.0276346  -0.1190787  -0.2226713
   0.2171408  -1.5350851  -1.3579161  -0.1683560   0.7413283   0.1944300
   0.0934313   0.0537972   0.3727732  -0.2076394   1.4544308  -0.3234868
  -0.0625804   0.9918006   0.2575601   0.0863767  -0.2295491  -0.2111132
   0.3143714  -0.8516741  -1.4710519   0.0198865  -0.0705261   0.5075829
  -0.2909122  -0.0826207   0.0546936   0.7955074   0.6192464  -0.2045148
  -0.9451968  -0.5728063  -1.4684874  -0.1510616   0.2123562   0.1290990
  -0.1386954   0.3616920   0.5608463  -0.0057173  -0.3482974  -0.7028172
  -0.1280715   0.1932460   0.4011878   0.1142804  -1.3397915  -1.0918573
  -1.1482527  -1.2319517  -0.2442651  -0.1846467   0.0310775  -0.2494504
   1.7586909  -1.0916347   0.4575231  -0.5365350  -1.2159056  -0.4643800
   0.0645239  -0.1142788  -0.1107603  -0.9754800   1.1924999  -1.3454712
   0.5038816   0.2310344   0.5263149  -0.4219401   0.2114035  -0.1845042
  -0.0795130   0.4915747  -1.2342761  -0.1421638  -0.0427423  -0.2239350
  -0.2370850  -0.3715712   0.0038555  -0.2295671   0.5652616   0.8783914
   1.1540846  -0.2203053  -0.4569576  -0.3047587   0.0930084  -0.0654210
  -0.5090813   0.5528122  -0.1347763   0.0767380  -0.7855429   0.1736431
   0.0092292  -0.0073699   0.3266769  -1.7303185   0.8722499   0.0459349
   0.9779863   1.4399948   0.4114361  -0.0231044  -0.2629388   0.1368551
   0.5947589  -0.7344369   0.3361578   1.0893197   0.1919270  -0.3726594
  -0.2254794   0.1164681   0.0096261   0.3590698  -0.9464386  -1.3564901
   0.2674486   0.8902366  -1.4056401   0.1633426  -0.0347425   0.1318100
   0.2422173   0.9467092   0.8446645   0.0872468  -0.0369859  -0.8647810
  -0.2841383  -0.1573418  -0.1935186   0.2972069   0.1414370  -0.3683851
  -0.5922340  -0.6770089   0.0436925   0.1686008   0.2951073  -0.3239786
   0.0522919   0.9325304  -0.8501003   2.0527846   0.2573756   0.5178744
  -0.0675711  -0.1081130   0.1312988  -0.1252039   0.4609921   0.4742075
   0.3084448  -0.0362386  -0.2856467   0.1636495   0.0934917   0.0976507
   0.1991417  -0.2720236   1.8498929  -0.3568549   0.2316073  -0.4577621
   0.2224448   0.0178365   0.1231301   0.0817865  -0.7323698   0.1704213
  -0.7072912   0.0250297   0.3120677   0.0598063  -0.1023401  -0.0957139
  -0.5065510   0.3106469   0.8110011   1.1447787  -0.2094151   1.0229071
   0.2715133   0.2450466  -0.0786428   1.4951749   0.3852480  -0.0952242
  -0.1023388   0.0876083  -0.8111418   0.1632783   0.0331564   0.0126812
  -0.1047334  -0.9101564   0.5455423   0.5493964  -0.1754283   0.8986740
  -0.0355164  -0.1717451  -0.0017668   0.1511676   1.1353088   0.4642196
  -0.0343140   0.0074150  -1.6163941  -0.4043307   0.1260540  -0.1953975
   1.5580411   0.5444355   0.6441089   0.2926177  -1.6187171  -0.2359714
  -0.2483351  -0.1025144  -0.2115702  -0.4756509  -1.1472743  -0.3135406
   2.0971189   1.6240358   0.5321928   0.0485568  -0.1583174   0.0166332
  -1.5327492  -0.1964235  -0.3124861   0.8866690  -0.8529267  -2.3648184
   0.0359704  -0.0176046  -0.2510795   1.3404997  -0.2982855  -0.5027879
  -1.0675485  -0.5403356  -0.4783151  -0.3677802   0.0248704  -0.2075197
  -0.3308385   0.0252976   0.6375999   0.9171148   0.8732525  -0.3267306
  -0.2415290   0.2902320   0.0980541  -1.1914951   0.1826624  -0.1253858
  -0.6634984   0.4506626   1.1127714  -0.2489367   0.3135433  -0.2870467
  -0.0727438   0.3781157   0.3748652  -1.0772045  -1.1533188   0.5871185
   0.1870706   0.1074385  -0.1500932   0.4347473   0.8257360  -0.1919629
   0.0466815  -0.6868996   0.1538391  -0.4510755  -0.1421738  -0.0022758
  -1.9442256  -0.6722885   0.2540881   0.2767236   0.6853686   0.4458777
  -0.2575835  -0.0821563   0.2676327   0.3596301  -0.0361355  -0.8403145
  -0.8446114  -0.0238675   0.7780431  -0.0039105   0.2855475   0.2260389
  -0.4594313  -0.5165855  -0.6964483  -0.6082922   0.6987235   0.5586731
  -0.2317366  -0.0068297  -0.0303977  -0.5675057   0.9995779  -0.5567104
   0.2632011   0.1147866   0.7669705  -0.0118088   0.0168261   0.0806360
   0.4377777  -0.6840002   0.5331420   0.0497150   0.1184117   0.4024105
  -0.0914064   0.0007344  -0.2064970   0.2347705   0.8043998   0.4336746
  -1.2893356   0.6183148   1.1521970  -0.1133096  -0.2291416   0.0996730
   0.7834927  -0.1132908   0.2258162   0.1000693   0.5097396   0.9278463
  -0.1353691  -0.1386580  -0.1102336  -0.9162287  -1.3883509  -1.2153362
   0.9354843   0.1662045  -0.4990948  -0.0009875  -0.1179000   0.0377274
   1.8365450  -0.0511414  -0.1099718  -0.0314454   0.3590546  -0.1289319
  -0.2165346   0.0411419   0.0292457  -0.5426272   0.1147365  -0.4329354
  -0.3582895  -0.0748148  -0.0584300  -0.0650405   0.2277062  -0.2317514
   0.6581161   1.4148001   0.2711179  -1.4290986   0.7578878  -0.6091600
  -0.1936159   0.1383303  -0.1853922   0.7232817   0.2621312   0.4800894
   0.9851076  -0.6692217  -0.9750127   0.0135572   0.0695902  -0.4266511
   0.6355624  -0.1251201   1.4169727   1.2761953  -0.0833628  -0.1825048
   0.1554834  -0.1749249  -0.0554522   0.3114276  -0.8571717  -1.0418613
  -1.2516612  -0.9954729   2.1212688  -0.0192961  -0.0453643  -0.1179003
  -0.0181967   1.3604335  -0.2113104  -0.8889244  -1.2379702  -0.1925997
  -0.2306009   0.1458393   0.0566177  -0.0442189   0.3461256   0.8907983
  -0.0776797  -1.0082096   0.3520000  -0.2298165  -0.2105762  -0.3661307
   0.0933474  -0.4518845   0.1283678   0.6855125   0.0639325   0.3505292
  -0.0365224   0.0214551   0.0628718   0.4994936  -0.4038329  -0.3209199
  -2.0151059   0.1413498   0.6827164  -0.1477548   0.0480662  -0.0704283
  -0.8459589  -0.3359220  -0.8445297  -0.1946022  -1.1047218   0.7899398
  -0.3128251   0.2202107   0.0771394  -0.2229114   0.1813695   0.4734273
   0.1758448   0.5360522   0.3464606   0.0047356  -0.1692330   0.4026589
  -0.7591419  -0.0554644  -0.7613327  -0.9793792   0.3819667   0.8835416
   0.1354183  -0.0016834   0.3703696  -1.0600922  -0.0699739   0.7376912
  -1.5656208  -0.7740294  -0.6778386   0.0710867   0.0810085   0.0012727
   1.0081002  -2.1222731  -0.0915834  -0.9940795  -0.9389066   0.7676696
  -0.0681220  -0.1552872   0.0253251  -0.8545462   0.0245119   0.3264625
   1.2115835   0.6312045   0.2678501  -0.1948998  -0.0937249  -0.0247672
   0.1767184  -0.1369034   1.1177661  -1.2758750  -0.6653500   0.6273756
  -0.2188588   0.1349433   0.1409714  -0.1524098   0.0021713  -0.4537261
   0.5463207  -1.1418087   0.3492114   0.5723652   0.3540692  -0.0414411
   0.2546218   1.2834631  -1.1439719  -0.2014436   0.0781999   0.3217298
   0.0161811  -0.0343843   0.0928803   0.2411179   0.4290593  -0.1212834
  -1.3013313   0.3249431   1.1375614   0.2000654   0.2502613   0.0433356
   0.3038072   0.2083691  -0.3749938   0.5482145  -1.3080540  -0.4834511
   0.1594293   0.2666511   0.0597730   0.4220389   1.3965950   1.5889238
  -1.4542253  -1.8056029   0.4301528  -0.1667568  -0.0012834  -0.3338428
   1.9148448  -1.0063628  -0.2927695   0.1522432  -0.2454993  -0.6297577
   0.0806378   0.1265334  -0.2842064   0.1682599   0.5621851  -0.8589978
   1.4218840  -1.0360736  -1.0666276   0.0937486   0.1463283   0.1793211
   1.4169651  -0.9214306  -0.6251234   0.1513222  -0.6362906  -0.7691851
  -0.1663967   0.0213945   0.1502839   1.0117877  -0.7492509   0.3553985
  -0.1007804   1.2616440   1.1283088   0.1657526   0.1002431  -0.0324342
   0.7331213   1.0257424   1.1839550   0.5882854   1.1854795  -0.2076904
   0.0337693   0.3259544   0.2327631   0.1013033   0.1858781   0.2494924
  -0.5238243  -1.3790136  -0.2407568   0.0001041  -0.3552245  -0.0332265
   1.0691702  -0.0988026   0.7024044  -1.2025853  -1.5011144  -0.6730512
   0.1567099  -0.0066084   0.2265728  -0.5296798   1.1153208   0.2396696
  -0.6623688  -0.2048258   1.6528585   0.1450651  -0.1065271   0.0566425
   0.7181101   1.7289352   0.8103055  -0.6153413   0.4720782  -0.9781669
   0.0805793  -0.0729243   0.1867788   0.3984791   0.0256240   0.1331542
  -0.9532858   1.1162303   0.1364253  -0.1892501  -0.0740347   0.0931187
  -0.5342981  -1.0491608  -0.6787016   0.3623208  -0.1964921   0.3784210
  -0.0971356  -0.0689232   0.2670996  -0.4799113   0.4765535  -0.1264838
  -0.0718305   0.8646478  -0.1131244  -0.0015888  -0.0896854  -0.1783371
   0.5035511  -0.1927253  -1.3179074   0.3416863  -1.0529731   1.1971801
  -0.0469149  -0.2484376  -0.1360611  -0.2151863  -0.4141347  -0.9087426
  -0.6281339   0.1031110   0.5218801  -0.1810357  -0.1170008   0.2334391
   0.9202896   0.8052422   1.1095721  -0.2346910  -1.1846064   0.5531757
  -0.0078871   0.2944244   0.1150782   0.3237989  -1.0700333   0.2405412
  -0.3928836  -0.2458716   0.4593331  -0.3697316   0.2351074  -0.1439773
  -0.1933210   1.2280457  -0.1888840   0.9327069  -0.0340722  -0.9131673
   0.1657753  -0.0611356  -0.0391825   0.3211455  -0.0759681  -0.6190804
  -0.3994221  -0.4133926   0.9844113   0.2489969   0.1158952  -0.1974033
   0.5410581  -0.7304847  -0.2519614  -0.2446928   0.6100028  -0.3239536
  -0.3664742  -0.0510323  -0.1013012   1.6802156   0.8740641   0.7746815
  -0.9886667   0.1735950  -1.1262879   0.0182396   0.1603957  -0.0664065
   0.7181968  -1.0854687   0.2244115  -1.3594732   0.1895149   0.8874071
   0.0482952   0.0487018  -0.0145145   0.0554604   0.1277305  -0.6083553
  -0.3053008   1.1833969   0.6310995  -0.1781088   0.0562061   0.3585406
  -1.2105361  -1.5033131   0.5363627   1.0459651  -1.5308374  -0.2572109
  -0.0740913  -0.1153780   0.2344042   0.6526887   0.3344762  -1.1134449
   0.4542036  -0.0966958  -0.9602476  -0.1124268  -0.0215701  -0.1151134
   0.2034210   0.6853503   0.0463875   1.4437094   0.8196369   1.8321147
  -0.1012885   0.1763299   0.1574606  -0.0342817   0.2799250   1.0027463
   0.8257250  -0.5261727   0.3318709  -0.4231269   0.1438889  -0.1628400
  -0.1739093   0.4869290   0.7661336   0.7581760  -0.2919238  -0.7994881
   0.0762558  -0.0023980  -0.0725845  -0.0283165   0.3709014  -0.5441528
   0.6324237  -0.7293782   0.1522437   0.0331000  -0.0717428   0.1253319
  -1.3412901   0.0999137  -0.8262429   0.4620892  -1.2719794   0.5728127
  -0.1613453   0.1199953   0.0688342  -0.1873458   0.4842267  -0.1332305
   0.2012306   0.2694961  -0.8136786  -0.0468973  -0.1420269   0.0437577
   0.5650025  -0.9544100  -0.7477551  -0.7656549   0.3495728   0.1419810
  -0.1083415   0.0566576   0.1770922  -0.0981274   0.4921779   0.9300076
   1.0417873  -0.1062825   0.2368387   0.0951677   0.1187713  -0.0991711
  -1.9325687   0.1772884  -1.0389145   0.1273649   0.0986270   1.2730252
  -0.1365033   0.0777233   0.1069302   1.3537544  -0.7950393   1.5250660
   0.3788289   0.1670231  -1.0597287   0.1477197  -0.0194257   0.0201350
   1.0244340  -1.1722975  -0.8083629  -1.3093226  -0.3012196   0.3959604
   0.0567323  -0.0210102   0.0850923  -0.2837781   1.0640433  -0.7345418
  -0.6315607   0.7280436   0.0323530   0.1770038  -0.0543822  -0.0148916
   1.3099158  -0.5778820   1.4736187  -1.4639918  -1.7581923  -0.7113049
   0.0230068  -0.3200023   0.1622800  -1.8604843  -0.9265428   0.6497643
  -0.5173589  -0.3548140   0.3494634  -0.1062634   0.4553600   0.1834998
  -0.0303636  -1.4131854   1.0781428  -0.4127254   0.4897068   0.5163320
   0.3427462   0.1420115   0.0196481  -0.3326028  -0.7125192  -0.8037749
  -1.0354957   0.6759689   0.1625765  -0.2600733  -0.2250527  -0.1315111
   0.6723369   0.4932705   0.8044406  -0.6904529  -1.1414555  -0.9014411
  -0.4621212  -0.2536282   0.0573926  -0.1560658   0.2686046  -0.8626372
  -0.1617186   0.2040966  -0.8801958   0.0067881   0.0297838   0.1942393
  -0.0913545  -0.8514326   0.6346365   0.5036139   0.1776574   0.4379450
  -0.1566895   0.3231116   0.1326332   0.0417007   0.4497088   0.1271228
   0.3970046   0.1521613   1.6137149  -0.0318816   0.1109255   0.2381056
  -1.9574622   0.7328095   0.0894385  -0.7042960  -0.4910207  -0.0239634
   0.0872484  -0.1712415  -0.0655839   1.5686222  -0.6343535   1.3976493
  -0.6011141  -0.6285107  -2.2655988   0.1290077   0.2356036   0.0167361
  -1.6559547   0.4507345  -0.6569589  -0.9143716   0.0426861  -1.7022938
  -0.0766539   0.0639084   0.1032944  -1.0715332   1.4798997   0.9973782
  -0.5241700  -0.9340786  -0.2776277   0.0187270   0.3300581   0.2684020
   0.5549014  -1.0734452  -0.1107733  -1.1924873  -0.0442633  -0.2723660
   0.2795312   0.3117641  -0.0650689   0.5585812   1.8217435   0.9547696
   0.2076887  -0.3388703   0.1452876   0.3714902   0.0804865  -0.1417131
   0.0458308   0.5951594  -1.0921911  -2.2095425   1.8712691  -0.3482238
   0.3597657  -0.0833402  -0.0525067   0.0935021  -0.4986645  -1.3559393
   0.6554699  -0.1112495   0.2314364   0.1747556   0.1471706  -0.2252586
  -0.8270096   0.3635063   0.2255460  -0.1448502  -0.3898768  -1.0077391
   0.0017250  -0.0597726  -0.0952075  -0.1241767   0.1994538  -0.2150508
  -0.1352409   0.1362272   0.2888250   0.2328683  -0.2239473   0.1252644
  -1.5972445   0.6507527   0.4240733   1.4074521   0.2489259   0.5377369
   0.0196444   0.0279288   0.0497358   0.3182886  -0.0793602   0.0043301
  -1.3467144   0.1693566   1.1092329  -0.1406437   0.0083498  -0.0918630
   1.0362459   0.9398593   0.6394949  -0.9899902   0.0559892  -0.7277727
   0.0265015   0.2557809  -0.1783692   0.7158236   0.5206466  -1.0034241
   0.6683221  -0.3292099   0.8603064   0.1718285  -0.3919971   0.1116321
   1.1316126  -0.7693926   0.8051183  -0.7494032   0.1435413  -0.0267119
  -0.1830231   0.1275883  -0.2837120  -0.6181758   0.9919646  -0.0344127
  -0.6043742  -0.4969344   2.0881696  -0.0629213  -0.0201402  -0.2137669
  -0.4859691   1.0507867   0.9275441   0.5983590   0.1635689   0.1937399
   0.2990787  -0.4040160  -0.4293106  -0.4278857   0.0292597   0.9192134
   0.7068974  -1.2219737   0.3673068  -0.2349643  -0.0506379  -0.1186092
  -0.2256172  -0.0490566   0.4910558   0.1832429  -0.1559151   0.5642665
  -0.2775627  -0.1630556  -0.1054343   0.0354226   0.8201015   1.9664159
  -0.9098577   1.1272518  -0.8783952   0.3635416  -0.0076488  -0.1039288
   0.1568553   0.1671258   0.4166190   0.7549827   0.2953759   0.8540158
  -0.3286019  -0.0155294   0.0321713   0.6715844   0.4032047   0.4495658
   1.1768365   1.0068352   0.1323076  -0.2690364  -0.0643058  -0.0025305
  -0.0714522  -0.0812166   0.2071167  -0.7566671   0.5325192   0.3631070
  -0.0362643   0.1019888  -0.1494777   0.1111166  -0.4410597   1.1449831
  -0.2502788   0.5725638  -0.5973894  -0.1345157   0.0364175  -0.0770840
   1.3476236  -0.9691845  -0.3489387  -1.3812099   0.6137465  -0.3278171
  -0.0328863  -0.2586843   0.0976369  -0.3749362   0.1023602  -0.9591510
   1.0794857   0.5705051   0.5971061   0.3218053   0.1983109   0.1860341
   1.7217534  -0.4752655   0.2180469  -0.4423829   0.3235181   0.5515510
  -0.1269078   0.1268203  -0.0631446   1.1054900   0.0291293   0.1675126
  -0.3805713  -0.6397267  -1.7393345   0.1032192   0.1366875   0.1546709
   0.3809052   0.8915690   0.6210874   1.0374339  -0.9241997  -0.1242338
  -0.0152968   0.1887518  -0.0299471  -0.2190354   0.1539631   1.1047392
   0.9368044   0.9169803  -0.5939477  -0.1549462   0.1095009  -0.0431004
  -0.3856099   0.3615911  -0.5679297   0.6751898  -1.1306952  -0.2551875
   0.0805301   0.1440006  -0.0196662   0.0680386  -0.9732697   0.6325193
   0.5107466  -0.1104884   0.9861379  -0.4222956   0.3039949  -0.0511521
   0.0070652   2.0349251   0.2156018   1.5402335   0.0301901  -0.2990900
   0.1924176  -0.0104502   0.0081013   0.1316288   0.8279653   0.4047666
   0.2728770  -0.6801270   1.0358534  -0.2046843  -0.3064626  -0.0551082
   0.1217034   1.1968438   0.5117303  -1.4604435   0.4699092   0.7739240
   0.0287447   0.2156455   0.0255470   0.1151348   0.0114886  -1.5328307
  -0.1270266  -0.8304314  -0.6870656  -0.1169458  -0.2163862  -0.5234305
   1.3158745  -1.1629942   0.2125944  -0.9670569  -1.5461885   0.7021284
  -0.1858056  -0.0182460   0.0730341  -1.2179390   0.5180472   1.1970151
   0.1934945  -0.9959155   0.2314928  -0.3293145   0.3134405  -0.0765349
   1.7869816   1.1333058  -1.1813147  -1.9195113   1.3677563  -1.7984746
   0.3536691   0.0193163  -0.2499852  -0.0674616  -0.0546718   1.0661813
   0.9929112  -0.3256418  -0.7886618   0.2651152  -0.2294235  -0.0405194
   0.0573825   0.6905242   0.0192900   0.5403346   0.5113772  -0.7947343
   0.1310522  -0.0670398   0.1937765  -0.7495144   1.2632361  -0.7229639
   0.5103589  -0.2616658  -0.2116077  -0.3424854   0.2290021   0.0053722
  -0.0864128   0.0855200   1.9181636   1.5219025   0.6420524   0.3298576
   0.2590306   0.1780249   0.1871816  -0.2517819   0.2505669  -0.1649155
   0.1918734   1.0683504  -1.6535890   0.4580198   0.0958918   0.2698915
   0.2936799  -0.3773556  -1.1581169  -1.4260468  -1.2142413  -0.3345307
  -0.0806183  -0.4094985  -0.0851348   0.3074101  -0.2062185   0.0631432
  -0.8342719   0.3568206   0.6224110  -0.1121554  -0.1334415  -0.1389810
   0.1746285   0.1186450  -0.1901692   0.4751111  -0.3350144  -0.8626067
   0.1685832   0.1066327   0.0181944   0.7396240   1.1474309   0.1482197
   0.3559901  -0.7035488   1.0382006   0.3600643  -0.1066417   0.0059313
   1.0730655   0.1026448  -0.7488205  -1.0974984  -0.0761943  -0.2428152
   0.1615272  -0.2241040   0.0567746   1.9708151  -0.1385390  -0.9985937
   0.1471827   1.7033645   1.1248002   0.5168158  -0.1988998  -0.3143767
   1.3123108   1.0817377   1.3967570   1.1247416  -0.3773089   0.5397655
  -0.2448688  -0.4112591  -0.2005863   0.1442703   0.5456522  -1.3417844
   0.6640180  -0.4760872   0.0906260   0.0561025   0.0337819   0.2609933
   0.7555813   0.0875389   0.3059099  -0.5628680  -1.1840167   0.8494563
  -0.3791238   0.4366891   0.0151506   0.1019970  -0.2156191  -0.7347391
  -1.1540471  -0.0677028   0.3148387   0.0516908  -0.0499112  -0.0758373
   0.8352819  -0.3996528   0.3861818   0.0726645  -0.0687473   0.9290724
  -0.1292989   0.0500902  -0.1483416   1.8883947  -0.7539688  -0.8362766
  -1.6361106  -1.6057430  -0.8448036  -0.1954819  -0.0493742  -0.4047769
   1.0976552  -0.1678762  -0.1517742   2.3140892  -0.0666691   1.0511641
  -0.0516091  -0.0950496  -0.2648964   0.3563116  -0.2484846  -1.2558966
  -0.0684529   0.3354390   1.2958324  -0.2000608  -0.1388147   0.0362888
   0.2152772   0.8014236   0.5595125   0.8451680  -0.5336957  -1.1704971
  -0.0309962   0.0921025   0.4145732   0.2467713   0.5440029  -0.1926544
   0.0700814  -0.6964633   1.1255160   0.1148020   0.1964182   0.3303844
   0.9139362  -0.0210252  -0.1876275   0.3497033   0.5116559  -1.6691064
   0.1909146  -0.3080309   0.4036465   0.3936946   0.2032531  -0.4162075
   0.0819497  -1.3076297   1.0418094   0.2069444   0.0838173   0.1135696
   0.7213828   0.3430113   0.2066541   0.6898458  -0.7918116   0.3025088
   0.0861995  -0.1625637   0.1492226  -0.6324988  -1.0097918   0.0309921
  -0.4953507   0.4118703  -0.2832133  -0.1098918   0.4288508  -0.0241155
   1.3665651  -1.0189709  -0.6169625   0.7378606  -0.5816212   1.7701205
  -0.0381711  -0.1313554  -0.0339640   0.7545494  -0.8848443   0.7992872
  -0.0173880   0.2423895   0.9687418   0.0506874  -0.2957689  -0.1290374
   0.4130644   0.9473215   0.8649446  -0.2882303   0.1979908   1.7733411
  -0.3462840   0.0392614   0.1122694   0.5184805  -0.2349350   0.0921708
   0.2559530  -1.6983830   0.7807845   0.0046478   0.3513892   0.1847857
  -0.8810173  -0.2033558  -0.1124071   0.1090526  -0.0652706  -0.4438918
   0.0219166   0.0832551   0.1305822   0.5229792  -1.4177284  -0.8071914
   0.6233210  -0.0328075  -0.1485654   0.0690305   0.0887598   0.1765476
  -0.1308532  -1.3556317   0.0325687   0.0388885  -1.5243662  -0.4252584
   0.1357146   0.1064826  -0.0010163   1.3001675  -0.5047387   0.6940766
   0.5081388  -0.1967095  -0.0094870  -0.1671267   0.3630595  -0.2364041
   0.2577855   1.6908899  -0.1333436   0.0267515   0.8279890  -0.1446827
   0.1159999   0.1243894  -0.0186721  -0.7800691   0.4352320  -0.2437381
  -0.0351821  -0.4813480   0.7033124   0.0498631   0.1583818   0.1089556
  -1.8445624   0.6338681   0.5546054  -0.5937668   0.0522994  -0.6536792
   0.1218091  -0.4412912   0.0263766   0.6555692  -0.5478176  -0.4259420
  -0.1853841   0.4384892   0.0789053  -0.0105604   0.0920806   0.1656738
  -0.3507631  -0.9040783   0.4271467   0.3444364  -0.2166250   0.2442101
   0.0219090   0.2815959  -0.1650830   0.8733227  -0.2134119   0.2673695
   0.7587531   0.6291949  -0.4050671   0.5042163   0.1110586   0.0386121
   0.3085164   0.1353054   1.0456962  -0.4295866   0.3818060   0.0722870
   0.2915764  -0.1246669  -0.1944202  -0.8884702  -0.5215037   1.3573831
   0.5009918   0.3212613  -0.8082169   0.2936300  -0.0831184  -0.2016484
  -2.3543073   0.5372153  -0.8376564   0.2038500  -0.2941605  -0.1360370
   0.1895991   0.2058418   0.2520739  -0.6358553  -0.6730829   1.7045081
  -0.8739721  -0.2005217   0.3887447  -0.0628808   0.1774611  -0.0042749
   0.3779714   0.3698302  -0.0848238   0.1168765   0.5101442  -0.2245987
  -0.0149947  -0.0613314   0.1520992  -0.1202233   0.5794898   0.1281046
   1.0805616   0.0949176   0.2564776   0.1402512  -0.0401361  -0.0858540
   1.0564590  -1.1593124   1.3529323   0.2476011   0.0204231  -1.7492468
  -0.2194338  -0.1274765  -0.0735647  -1.8710237  -0.3910509  -0.0330344
  -1.4447150   0.1903322  -0.1871915   0.0472662   0.2137496   0.2414490
   0.5654686   0.5999618   0.9281317   0.2495787  -0.7913891   2.3706787
   0.1142295   0.0323278   0.2020534  -0.5359437   1.0394298   1.7717283
   0.8077703  -0.6696990  -0.1094411   0.3175781  -0.0932714  -0.2118884
   0.4169933   0.1294133   1.1743684  -0.3741739  -0.7500690  -0.2072791
   0.2182979  -0.2622520  -0.0873942  -0.4962089   0.7537336  -1.2254212
  -0.5058340  -0.3528456   0.5436132   0.3432245  -0.0894755   0.1062815
  -1.0196410  -1.2653027   1.2606860   0.4708282   0.7417295  -0.4305570
  -0.2497947   0.0316745   0.1175951  -0.8451086  -0.0549181   0.2712885
  -0.4540838   0.4741119  -0.3426505   0.2795804  -0.0197676  -0.1462801
   0.6074161  -1.3121369  -1.1823598  -0.9833546   0.3200439   0.0645484
   0.3622642   0.0146163  -0.1741116   0.4780954  -0.0155910  -1.5079464
   0.4991392  -0.3709059  -0.2258336   0.1217732  -0.1264706   0.2682366
   0.3713824  -1.6016200   0.2961371   0.1797186  -1.3629602   0.3446512
  -0.4145509   0.0348378   0.0856689   1.0200542  -1.0640581  -0.8065271
  -0.3515334   1.4995727  -0.7530085   0.3434307  -0.4135573  -0.0900648
   0.3081987  -0.6854875   0.8141058   0.5173606  -0.3256831  -0.6221722
  -0.2737675  -0.0863551  -0.2386320  -0.0901831   0.6892628   0.2675569
   0.1575308  -1.1443634  -0.3513533   0.0172754   0.1438261   0.0620509
  -0.7365449  -0.0999264   0.4975216  -0.9685233  -0.3123892   0.0504965
   0.1226737  -0.2051439   0.2219438  -1.2057302  -0.7346389   0.2352101
  -0.3652833  -0.1176455   0.8228904   0.0002507   0.1820126   0.1282725
  -0.8680020  -0.1264935   0.2643620   0.0876108  -0.6126409   0.1878186
  -0.1884182   0.1655919   0.2644792   0.0931704  -0.4313751  -0.7401044
   0.8901275   0.2189831  -0.4333113  -0.1654296  -0.1752530  -0.2541132
   0.5815815   1.1136869   0.4156072   0.0297206  -0.3726284  -0.2029489
  -0.1815637  -0.1069711   0.0166556  -1.0443840  -0.0253114  -0.3717696
   1.2635967   0.8024773  -0.2676963   0.1733119   0.1690901  -0.0352709
   0.6578223   1.2208891  -0.8162535   0.1393101  -0.5819023   0.3351492
   0.2855873   0.2741609   0.2700452  -0.1562147  -0.4507294  -0.2076837
   0.3018342  -1.1054920   0.1477803  -0.1168747  -0.0003609  -0.1852022
  -0.7567441   0.5304931   0.2519993  -0.1994330  -0.5535681   0.5285759
  -0.2440364  -0.2992384  -0.0512910  -0.4880459   0.1261454  -0.3234337
   0.9249122  -0.1339075  -0.8935653   0.2054232  -0.0325511   0.2882415
   1.1626593  -0.4862579  -0.1685021  -0.7095334  -0.2401020   0.8839103
   0.2135806   0.2777287   0.2561127  -1.0964493  -0.0833077   0.1578366
   0.3365685  -0.1043745  -0.0814400  -0.0544172  -0.0564035   0.1944222
  -0.5851856  -0.6619348  -0.4331902  -1.0729127   0.9334775   0.5342715
   0.0543595  -0.0007680  -0.1745494  -0.5541058  -1.1789104  -0.3386826
  -1.1051039  -1.0158248   0.3535630  -0.0594082  -0.1910690   0.3976807
   1.4765163  -0.0801853   0.0088778   0.5231216  -0.1421797  -0.6398131
  -0.1559461   0.1763878   0.1063499   0.3964164   0.6278495  -0.4061844
   0.2171397   0.5859666   0.7262878  -0.3957613   0.1382034  -0.3764470
   0.1545252   0.8996324   0.7743202   1.3854177  -0.2243702   0.5543066
   0.2082016  -0.0763025  -0.2437310   0.0523040  -0.7407304  -1.1951003
  -0.9536356   0.3467267   0.1698293  -0.0176817  -0.0091155   0.0630894
  -1.2324526  -1.1430101  -0.1157303  -0.0761540   0.4420071   0.9366924
  -0.1992584   0.0022697  -0.0960363   0.7841719   0.1727068  -0.5686883
   0.4064341   0.0503132  -1.2728517  -0.0242853   0.3007778   0.0003417
  -0.0453320   0.0916012   1.6919623  -0.0578134   0.5738546   0.6258293
  -0.1030413   0.1773207   0.1930409  -0.0977654  -0.1776303  -0.7809097
  -0.7567023  -0.7812710   0.2053333  -0.3678448  -0.1135400  -0.2125666
   0.3532647   0.8624104  -0.4273945   0.2440976  -0.2085339  -0.2097040
   0.3591805  -0.2360277  -0.1294851  -0.6588597   1.8614935   0.5533176
  -1.9303707   0.4589771   0.8234122   0.2762216  -0.1282449   0.0130037
   1.0388340   0.1835510   0.4037616   0.8198031  -0.9587329  -0.5658073
  -0.1688931  -0.0691737   0.1823643   1.1625099   0.2584533   1.1196630
  -0.4242366  -0.0879222  -0.4595232   0.2041183   0.2166580   0.2622223
   0.5888558  -0.6313078  -0.4482699  -0.7691635  -0.2159620   1.0925576
  -0.1897332  -0.1515266  -0.0010673  -0.4574991   0.7595339   1.4922446
  -0.8602872   0.6107627  -0.4021522  -0.2119084   0.1632832   0.1471256
   0.4876554   0.4470494   0.9111822   0.2099017   1.1807505  -0.4796350
   0.3161411   0.1168743  -0.1751225  -0.5001006   0.2953358  -0.2501019
  -0.9095377   1.0710579  -0.4164392   0.0224155   0.0481557  -0.0533836
  -0.4264853  -0.0843368  -0.1360493   0.4315916   0.0581976   1.5177591
  -0.0221256  -0.1591721  -0.4239008   0.0594164  -0.2559695   0.3579884
  -0.2008728   1.5308721  -0.9180061  -0.1043612  -0.1513387  -0.0194801
   1.1560611  -1.1312371  -0.1121369   0.3817681   0.4734777  -0.0232797
   0.0923560   0.2066833  -0.1183592  -0.5293579  -0.4899880  -0.5086879
   0.2204686  -0.6860363   0.8806397  -0.0432752  -0.1570084  -0.0415388
  -1.0718845  -0.1407729   0.0329811  -1.1487646  -0.7899538  -1.0316829
   0.3616032   0.0055067   0.2005018  -0.4310705   1.4994880  -0.8499897
   0.0926140  -0.3153289   0.1889582  -0.1805848  -0.2745778  -0.1270770
   0.0638792  -0.0592120   0.2063290   0.4591610   0.3390672  -0.1786576
   0.1058618   0.2430694  -0.1340864   0.0554329  -0.5580016   1.2741662
   0.2926206  -1.3320087   0.6359166   0.1582732  -0.3354438   0.0476616
   0.0227480  -0.3037073  -0.1363482   0.0132587   0.2363568   0.2925993
   0.1230596   0.1410803   0.0956054   0.2967664   0.7747545   1.1889415
  -0.3359173   1.1673333  -0.0739420  -0.1147986   0.3559925   0.0345608
  -0.2245545   0.7985395  -1.4391881   0.4818743  -0.7446914  -0.8984499
   0.2253812  -0.1038481  -0.0581971  -0.4209222   1.0879091   0.0568611
  -0.2925421  -0.2081132   0.1903722  -0.3742858   0.0281097  -0.1026670
   0.7163533   0.2701464   0.8381685   0.6277574   0.2944031  -0.9736023
   0.0802925  -0.0866254  -0.1066167   0.0717430   0.3436597  -1.1421310
   2.2317821  -1.3399593   1.1525346  -0.3543989   0.2361853  -0.2959794
  -1.6551309  -0.0640998   0.7817671   0.4954452  -0.4130778  -1.2663066
  -0.0764565   0.0935568   0.0565195  -0.9544348  -1.0831821   0.4978015
  -0.4345056  -0.2728417   1.2466738   0.1106242   0.0014121   0.1994061
   0.4270606  -0.7419491  -0.2962991  -0.0049308   0.1965035   0.9458708
   0.0799837   0.0293550  -0.1012478   1.2548762   0.5135029  -0.7337102
  -0.6642421  -0.5931850   1.8041396   0.1479296  -0.1453963  -0.0518326
   0.2710445  -0.3235085  -0.1389372   0.1353276  -0.5218721   1.0269818
  -0.0928501   0.0728267   0.1552463   0.4773233  -1.0463806   0.6428824
   1.3593884   0.9027254   0.2672693   0.2323401   0.0081870  -0.1250817
  -0.4663393   0.0915779  -1.1890864   0.2515443   1.3326110  -0.5440016
   0.1735690  -0.0888449  -0.0131042  -1.2322199  -0.4584915  -0.2036036
   0.0582405  -0.7226896  -0.3732360  -0.0269120   0.0427619   0.0219791
   0.6746719  -1.6111007  -0.3871598   0.9950165   0.7764943   0.2863512
  -0.4594908  -0.1141029  -0.1306409   0.5758600  -0.1883223   1.1970649
  -0.8869673   1.2504376   0.1856232   0.2139748   0.1547319   0.1296031
   0.3136660  -0.7381624  -0.1530926   0.8173791  -0.1311627   0.2821039
  -0.0369590  -0.0743195   0.2130216   0.8497673  -0.6499521   0.5617491
  -0.4055061  -0.1664296   0.6169228  -0.0394475  -0.2410184   0.0734658
   2.1211333  -1.8718853  -0.0945020   0.3159364   0.1606355   0.1454265
   0.0299842   0.0471496  -0.0018515   0.3948414   0.8896841   0.2478780
   1.9656031   0.3445888  -0.3424517  -0.1866773   0.2620405  -0.1389539
  -1.3715512   1.7326787  -0.2613653   0.9232191   0.0393192   0.6126381
   0.2199015   0.0429578  -0.1893547  -1.1362686  -0.1941756  -1.0985470
  -1.0246731  -0.5487390   0.4519231   0.0726046   0.0484407   0.0809613
  -0.6957894   0.9667641   0.0253624   0.6443840  -0.0772414   0.8978157
   0.2957581  -0.0609068   0.0639142  -0.8598739  -0.9479694  -0.7146530
  -0.6004134   0.3840863  -0.0556000   0.3333700  -0.1886994  -0.2504754
  -0.6282894  -1.7353048   0.8694401   0.8463558   0.7718363  -0.5039383
  -0.2355458  -0.1610035  -0.0005242  -0.3469285  -0.2872252  -0.7931494
   0.4286910  -0.1009135  -0.1910911  -0.2108994   0.0235181  -0.1868717
  -0.4371394  -1.2154634   0.6009735  -0.5483420   0.0820970  -1.0880142
   0.0441197  -0.0189217  -0.2245127  -0.3612448   0.0750847   0.3260899
   0.0964424  -0.4660422  -0.6068802  -0.1933253  -0.0514983  -0.2658645
  -0.1728211   0.1490620  -1.2819809  -0.8929061   0.1009869   0.1535196
   0.2267675   0.2194649   0.0186003   0.8830933   0.5719673  -0.4876329
  -0.6711096   0.8602474   1.0634667   0.1492288  -0.0434758   0.4081522
   0.3413531   1.4807095  -0.2272809   0.6093878   1.2318982   0.3516478
   0.1744676   0.2418031   0.2022857   2.5904152  -0.8389989  -0.0637225
   0.5286893  -0.5052141  -1.0983039  -0.0914862   0.1922818   0.3536184
   0.7539012   0.7648874  -0.6378758   0.1188600   0.8529878   0.7421662
  -0.2363821  -0.1252680  -0.2934372  -0.2762797   1.3481416   1.2839308
   0.1888846  -0.3252707   0.8597939   0.0499524  -0.0043176   0.0761144
   0.2459289  -0.2042320  -0.3429910   0.3423191  -0.2083063  -0.2985611
  -0.0657306   0.0349336  -0.1011044  -0.7514583   0.3012937   0.5077855
  -1.0871538  -0.0930120  -1.2495755   0.1629487  -0.1706732   0.2687814
   0.6023849   0.2784605  -0.0074915  -0.2000486  -0.2580939  -0.5691733
  -0.1795144   0.0812832   0.1931435   0.0461501  -0.2432902  -1.1511906
   0.6375588   1.1151563  -0.7687455   0.0054548   0.0544200   0.1377777
  -0.5317820   0.8513460  -1.1840496   0.9340385   0.1301414  -0.3171650
  -0.1507084  -0.0760737  -0.0946967  -0.0564316   0.2126938   1.3889591
   0.7309400   0.9437918   0.2650275  -0.0507846  -0.1270923  -0.0680087
   0.6713766  -0.5352141   1.7803102   1.1159021  -0.2955349  -0.0960042
  -0.2254314  -0.2251515   0.2231652  -0.1156608  -0.5947730  -0.5166381
  -0.0295601  -1.1864174  -0.3874736   0.3589522  -0.1569841   0.3567678
  -0.7106719   0.8977138   0.0255547  -0.0915255   0.5053485  -0.4442846
  -0.1615653   0.0552371   0.0324164  -0.7914516   0.1323045   0.1923792
   0.5025858   0.6910441   0.2311340  -0.1252989   0.0408347   0.0886271
   0.3268650  -1.3854297   0.7751167  -0.6566438   0.3859989  -0.6376838
  -0.0559917   0.0314633   0.2327256  -0.1666137  -0.1702548  -1.2268308
   0.0423678  -0.4817432  -0.7397228  -0.0372527  -0.2633355  -0.2406083
  -0.1681094   0.1397187  -0.4575597  -0.1790322   0.2980348   0.1194177
   0.0543833   0.1200282   0.3173522  -0.2804011   0.8769994   0.4199968
  -0.3176794  -1.6151935   0.4027980  -0.0142066   0.4136061   0.1846231
   1.1240512   0.5544744   0.4199763  -0.3429240  -0.3577628   0.0106254
  -0.3208492   0.1008568  -0.1631797  -0.4733115   0.1987654  -0.4500913
   0.5236203  -0.6320531  -0.4013244   0.1989255  -0.0314588  -0.0248927
  -0.4577438  -0.0269660  -0.3132652   0.5982103   0.0968856  -0.1913050
  -0.0866112   0.2255432   0.1664826  -0.4093765  -0.6550638  -0.1811327
   0.2420471   0.4172997   0.4001515  -0.0169385   0.1481570  -0.0661082
  -0.1163782   0.2963417  -0.4071460   0.4632099   0.0795540  -0.5266270
  -0.0809243  -0.0075366  -0.3319964   1.1460191  -1.0123942  -0.5249014
   0.2552589   0.2753149  -0.6456158  -0.0283140  -0.1688735  -0.0344957
  -0.2245256  -0.6092300   0.3234498   1.1442435  -1.7355209   0.3621480
  -0.0093632   0.0240543  -0.1555471   0.7725889  -1.2276070   0.0866531
  -1.0318729  -1.1815399   0.5280459  -0.0479618  -0.2757453   0.1020338
   0.2800655  -2.4680529  -0.4646226   0.9562152  -0.2432758  -0.3873736
  -0.0438976  -0.0856669   0.0544520   0.7529790  -0.4960624   1.0676824
   0.4986648   0.2332810   0.4397904  -0.1270320   0.1431413  -0.0179007
   0.5096829  -0.7757489  -0.1153106   1.0525873  -0.8010946  -0.8351069
   0.2093137   0.2352429  -0.3068143   0.0177408  -0.1368997   0.4792718
  -0.5153762   0.8634805  -0.4056861   0.2342799  -0.1116883  -0.0286153
   0.2864799   0.8251973   0.1818079  -1.0885933   0.0978997  -0.3060163
   0.1769118   0.0927581  -0.2133307  -0.3251605   0.1779084   0.7867984
   0.4807118  -0.5363004  -2.2259681   0.0869988  -0.0311659  -0.0608224
  -1.4346697   1.2994417  -0.6796324  -0.5603041   0.0262567  -1.2969587
  -0.2380514   0.0514569  -0.0903584   0.3227984  -0.5419461   0.0296294
   1.2815190  -0.1013890  -1.0601919  -0.1528973  -0.0549185  -0.0363132
  -1.0818383   0.1947044  -0.7865297  -0.1224010  -0.4250666  -0.2501073
   0.4275440  -0.2324581  -0.0063993   0.6329425  -0.1582409   2.3841254
  -1.0863904   1.2434171   1.3823074   0.0697201  -0.0727391   0.3059848
  -0.3087697  -0.7825249  -0.3157788   0.9847805  -0.9093683  -0.5595500
   0.1756373  -0.0531169  -0.1929222   0.6061226   1.1709817   1.3865196
   0.0873879   0.8854840   0.1546233   0.5396544   0.1129861  -0.1821440
   0.0499371   1.1915954   0.3971448  -0.7857098  -1.2547053  -0.1164147
  -0.0764641  -0.4895491  -0.3346144   0.7867180   0.5454584  -0.8555426
  -0.6969806   1.1162235  -0.8498715   0.1006648  -0.2001245   0.0764423
  -0.3104134  -0.0484839   0.2575545  -0.3151193  -0.0204604   0.4669330
  -0.1128159  -0.1655661  -0.0893426  -0.7445952  -0.5449940  -0.5619072
   1.5953368  -0.9124517  -1.1801525  -0.0959692   0.0737453   0.3204940
  -0.3343237  -0.0385129  -0.0070604  -1.3875725   2.2486788  -0.9493473
   0.2529123   0.3696611  -0.1230952  -0.5677571   1.3878768   1.3501429
  -0.0573195   0.9867409  -0.6046065  -0.0170498  -0.0583123  -0.1144072
   0.1127111  -0.5254213  -0.4879438  -0.3263814   0.7669898  -0.1413286
  -0.0286755  -0.1652337   0.3784935   0.7985804   0.0808360  -0.0944134
  -0.3551068  -0.4010427   0.7204367  -0.1542274   0.1042744   0.2805323
   1.0105806  -1.3559837   2.0817399   0.5967662   0.6847801   0.2422961
   0.1539465  -0.1409001  -0.1190299  -0.3779256   0.9795889  -0.0540441
  -0.2700708   1.3412454  -0.3862293   0.0141152   0.0437217  -0.4582553
  -0.6833327  -0.5476108   0.6004329  -0.0143785  -0.1173544   0.0973569
   0.0906532   0.3907146  -0.3426428   2.8667554  -0.4892806   0.5658090
   0.5792717   0.0335974  -0.4498383   0.1374875  -0.1807852   0.1597563
   0.6117949   0.1021135   0.9907661  -0.5467863   1.3881352  -0.6627235
   0.0080756  -0.0706253   0.1770493  -0.1912540  -0.5291475  -0.1513582
  -0.1869967  -0.0258005  -0.5951762  -0.1145581  -0.3041812  -0.2040698
   1.2675519  -0.4957933   0.5744587  -0.3136157  -0.6430627  -0.1121456
  -0.0477186  -0.2933645  -0.1868233   0.9842870   0.6024737   1.1744000
   0.7526515  -0.1082373   0.6497257   0.0680930  -0.1384825  -0.0968786
   0.5130037  -0.2798024  -0.7765359  -0.4413385  -0.0834249  -1.1581391
  -0.0135309   0.1001457  -0.0017868  -1.1991549   0.1427628  -0.6975354
  -1.0932257   0.2857830   1.5545488   0.2220584  -0.1418188  -0.2102957
   0.2950422  -1.0328769  -0.9932194  -0.3152820  -0.6117425  -0.1731279
   0.0799675  -0.4030680   0.0689787  -0.8177708  -0.5399932  -0.2088999
  -0.2919450  -0.1019245   0.5537491  -0.0593891   0.0973670  -0.0141565
  -0.0375687   0.1025749   0.1942485   0.6501392   0.0968685   0.5502794
   0.1193694  -0.0366971  -0.2269633   0.5057886  -0.6147168  -0.2668305
   0.5816100  -0.9404926  -0.6139423   0.1090005  -0.4050373  -0.3821766
  -0.6333624   0.2094318  -0.5744340  -0.9033672  -0.5177454   0.7646992
   0.1317380  -0.2710179  -0.2932448   0.4696410  -1.0606172   1.3099084
  -0.7216737   0.8393672  -0.1781004   0.1830759   0.2546698  -0.1476732
   0.3099315  -0.5239894  -0.6138756   0.8668922  -0.0625000   0.6269565
  -0.1356010   0.2205254  -0.1173929  -0.4274137  -0.1322661   0.1530986
   1.2015388   0.2394785   0.3135212   0.3170729   0.1923685   0.1655415
   1.6796213  -0.2084008   0.0608044   0.7039454   0.3746686  -0.8628818
  -0.1753435   0.1980097  -0.0813547  -0.3487658  -0.6775450   0.8270544
   1.0649855   1.1731810  -0.9033855   0.0144536   0.0671554  -0.1168299
  -0.0492840   1.4471412  -0.4408134  -0.5504826   0.1662659  -0.3597758
  -0.1219534  -0.2173883   0.0315559   0.5104921   0.3484679   0.8361929
   0.2833076   1.3243720   0.1634596   0.1387049   0.1776083   0.0592315
   0.3259079   0.4481309   0.2632797  -0.3184035   0.4808903   0.2728975
   0.2550207   0.0148167  -0.1838876  -2.1449580   0.7276092   0.1194682
   1.2041447  -0.1344329  -0.8636853  -0.0384888  -0.1525792  -0.0851553
   1.0348826  -0.1960926   1.5113058  -0.0959304   0.6032239  -0.8813688
   0.0685611  -0.1901314  -0.0188922   1.2038239  -0.3353506  -0.4382596
  -0.3198484   0.2003205   0.5974756  -0.1580914  -0.0387470   0.0183559
  -1.6106595   0.3322158  -0.4791744  -0.3024301  -1.0362062   1.0123170
  -0.0324403   0.1448758  -0.1634321   0.4621225   1.8927668   0.8146885
   0.5939944   1.2295222   0.8452519  -0.3129226  -0.0033722   0.0002935
  -1.0043105  -0.3681982  -0.3065556   0.1654808   0.4713498  -0.1383930
  -0.0434551   0.1396036   0.3763112   0.3268238  -0.5375628  -0.1777828
   0.0378267   1.3675302   0.0159796  -0.0001646  -0.0205790   0.2852545
   0.4750428  -1.1357921   0.9640203  -0.1734741   0.8365393  -0.7789826
   0.1569765   0.0512937   0.1266211  -0.2207582   0.4443901   0.6487225
  -0.3430208  -1.2855892   0.0855981   0.0575597   0.0227631   0.1432100
   0.5849786   0.1854313  -0.3718644  -1.8797516   0.8858445   0.5220473
   0.0671963   0.1039501   0.3519495  -0.6731850   1.5146724   0.7936750
  -1.1847243  -0.1465060   1.5413473   0.0851047  -0.0844890  -0.3366144
  -0.1161787   0.1719811  -0.1893013   0.0276859  -1.3929425   0.6593273
  -0.2250963  -0.1395538  -0.1186373   1.4656673  -0.1719941   0.1520865
  -0.0757215  -0.1185992  -0.6904910   0.1571780  -0.0139421   0.4455123
   1.3033838  -2.1440124   0.1476120  -0.5186845   0.4823906   0.1821350
  -0.1178424  -0.1249836   0.2586661   0.0057124  -0.0668551  -1.6551224
   0.4391400  -1.5555483   0.1250474   0.0761869   0.1297994   0.0740007
   1.1684474  -0.2433212   0.0515464   0.5444541  -0.4075815   0.7471543
  -0.5264761   0.2313192   0.1241591  -0.1926964   0.1197433   1.9580711
   0.7103256  -0.6512031   0.6201464   0.1269808  -0.1316579   0.3404947
  -0.4124535   0.6853182   0.4007221  -0.4149821   0.0425818  -0.0115013
   0.2721221   0.2745627   0.0508973   0.3490470   1.7150517  -0.3360656
   1.0968390   1.1157323  -0.3469274  -0.1882914  -0.1324741   0.2816474
   0.6764020   0.5344364   0.8725222   0.3337488   1.0309136  -0.7232897
   0.1768953  -0.0173671  -0.0828043   0.5125064   0.9455311   0.9363078
   0.4073865   1.1509926   0.5556711  -0.0562913  -0.1093393  -0.1566461
   0.3883789  -0.2829470  -0.9944916   0.2206989  -0.2689750   0.2299822
  -0.0878891  -0.3649025   0.3944627  -0.4891012   0.9136699   0.3068341
  -1.0964423   0.1604438  -0.4320951   0.1773351  -0.0774723   0.3255819
   0.4762811  -0.4155360   0.5323193  -0.9029014   0.1305110  -0.0987758
   0.0288328  -0.1695159   0.5440631  -0.7112859  -0.4549618  -0.3291363
  -0.6792507   0.0809538  -0.8075424  -0.0176778  -0.1416804  -0.0869781
   1.0231127   1.0112701  -0.2344083  -0.4486887   0.0739977   0.4516740
   0.1375611   0.4595581  -0.0294430   1.8299834   0.5070593   1.7125523
  -0.3039387   0.2944346   1.1379864  -0.0541078   0.0975964  -0.1861354
  -0.1315216  -0.0983378   0.6730574   1.2446200  -0.7149299  -0.5180464
  -0.2759029   0.1545381  -0.1635929   1.3840801  -1.2541808  -0.9609864
   0.8857828  -0.1594915  -0.7878953   0.0283236   0.0070861  -0.1938355
  -0.7253138   0.7560166  -0.7807985  -0.3273489   0.4241781  -0.0241520
   0.1197721  -0.2350730   0.4194622  -0.7746931  -0.0732748  -0.7394415
   1.4146627  -0.1405930   0.6257043  -0.2545711  -0.1031034   0.1020968
  -1.0360742   0.3301315  -0.0318179  -0.6275481  -0.2707829  -0.7270564
  -0.1746197  -0.2819994   0.1870199   1.5845363  -0.6629737   0.1397768
  -0.1993463   0.1804140   2.5994543  -0.3071163  -0.2100076  -0.2736490
  -1.0934625   0.2829335   0.0220437  -0.6406046   0.7075700   0.2342291
   0.2218541   0.2757286  -0.3354295  -0.5052120   0.0229305   0.0452990
   0.7176429  -0.0813897  -0.4660230   0.0979802  -0.1467152  -0.2336738
   1.2921299  -1.2026936   0.4198986  -1.1472406  -0.2112344   0.6930923
  -0.2197224   0.0491554   0.2584172  -0.5926438  -0.0127001  -0.3206592
   0.2377326  -0.5983705  -0.5224048   0.2944552   0.2436698   0.0767416
   1.6988323  -0.7777281   0.0829572  -0.4036600  -0.2139092   0.0927667
   0.6785260   0.1297236  -0.1239848  -0.1654749   0.2716072  -0.4854914
   0.2720232   0.4490707  -0.3793140  -0.1426581  -0.0797992   0.1980817
   0.5688285   0.8146266  -0.4554849   1.7001371  -0.5660064  -0.4871049
   0.3277130   0.1783518   0.1144672   1.2942698  -0.9097167  -0.7862552
  -0.5235188  -0.5725005   0.1221414  -0.0197691  -0.1635855   0.1960812
  -0.9204938  -0.1352019   1.1143558   0.0682148   1.5005176   1.4361947
  -0.0315144   0.2777503  -0.0404732  -0.2494735  -0.0033010  -0.5430072
  -1.5404636   0.4730631   0.3892782  -0.2618497  -0.0390880   0.2516765
   0.7466235   0.3394107  -0.8183269   0.4865711  -0.2405798   0.5266133
   0.2444548   0.1418202  -0.2317627  -0.4550206   0.0143591   0.2606976
   0.1508110   0.1333312  -0.7861085   0.1069858   0.0979563  -0.0952936
   0.3359072  -0.0062589  -0.5086195   0.5780395  -0.3653782  -1.1452873
  -0.2009190   0.1695174  -0.0378976  -0.3255470   0.2128044   0.3807993
  -0.1007292   0.5295444   0.4354544  -0.0191477   0.1407664   0.2407686
  -0.8457497   0.2615197  -0.7983122  -0.0493136   1.4950011   0.2760050
  -0.0107135   0.1588757   0.0065701   1.2329828   0.8046327   0.4794540
  -0.0162190   1.6866296  -0.4565146   0.2352910  -0.2633406  -0.0887261
  -0.4351637   0.2140978   0.9402219  -0.0694816  -0.0759750  -0.2232778
  -0.1046607   0.0597393  -0.2945532  -0.2303254  -0.8893292   2.0200568
  -0.9232986   1.2779889  -1.8566588   0.0903179   0.1211506  -0.4833161
   0.5869169  -0.3607670   0.8545407   0.1478115  -0.2032914   0.8312100
   0.2289047   0.2781511  -0.1580918  -0.0100206  -1.6987903   0.9456562
  -1.0949835  -1.1043044   0.0468355   0.2712661   0.1586157   0.0011310
   1.1261574   0.1714215   0.6670792   0.9261160   0.0889938   0.2215741
  -0.1524124   0.1430324   0.2322782  -0.1927588  -0.4184650  -1.1949415
   1.0688375   1.2097706  -0.2574083   0.1199759   0.2524065  -0.0178303
   0.1422335  -0.0784910  -0.1744748  -0.2169544  -0.7298292  -0.1997068
  -0.1416952  -0.0282489  -0.2730073  -0.5395120   0.0078357   0.1750971
   0.3075771  -0.7774835  -0.1669632  -0.0920819  -0.2057945  -0.1455088
   1.3133978  -1.0913970  -0.4946846  -0.9853398   0.7484109   0.3899435
  -0.1923749  -0.2320558  -0.2129690  -1.0412465   0.5721147   0.2266213
  -0.1933819  -0.6053780  -1.1642683   0.1501477  -0.1487835   0.4460972
  -0.5051169  -0.0358708   0.7414241   1.3736734   1.9157185  -0.0615710
  -0.0813346  -0.0869647  -0.0680889  -0.3702467  -0.4874031  -0.7247753
  -0.0291727   0.4441536  -1.3112299   0.1772755   0.1674475   0.3351611
   1.2583246   0.9590777  -0.4467475  -1.2595818  -0.3177012  -1.0009945
   0.0677994   0.0713293  -0.1650249  -0.5889816   0.2769577  -1.1996104
   0.1072353  -1.1375462   0.6465883   0.1146713   0.0246069  -0.0799816
   0.2924646   0.0434213   0.2679264   0.0293470  -0.3979779  -0.0402015
  -0.1785555  -0.3687027  -0.0325260   0.3850572   0.4853619   0.5794973
  -1.0337847   0.8043602   0.6222218  -0.0949105   0.0749698  -0.2057396
  -0.8616702   0.0238573   0.6419209   1.6883614  -0.2967963  -1.1081366
   0.2497482   0.3914760  -0.1272927   0.9213669  -0.8746081  -0.6676660
   0.1481601   0.1414303   0.1555557   0.4743932   0.0175790  -0.0416655
   0.5199958  -0.4664219  -0.9540930  -1.2076495   0.4193983   0.5515255
  -0.0869995   0.0032068   0.2124247   0.0753685  -0.5131938  -1.4642332
   0.2186379   0.2197249  -0.0235878   0.2262459   0.1195236   0.1411030
   0.9941923   0.0794171  -0.7470234   0.3586371  -0.6364431   0.2506498
  -0.0094210   0.0518841  -0.1138579   0.4411034  -0.2608288  -0.3844938
  -0.0115578  -1.6019541   0.7276922   0.2857544  -0.1047289   0.0417466
   1.2191798  -0.2871320   1.2998922  -1.9346240  -0.8729145  -0.4660960
  -0.0226211  -0.4269996   0.0188055   0.4727321   0.3888311   1.7841259
  -0.7625856   0.7088206   0.5893325  -0.1842994   0.1509204  -0.3260650
  -0.8577373   0.5051546  -0.0260827   0.3934867   0.3160348  -0.2822724
  -0.3182584  -0.0349649  -0.0226540  -0.3304377   0.4123975  -0.0440573
  -0.6988721  -0.0724458   0.7849232   0.1630957   0.0571541   0.2347275
   0.2967683   0.1253214  -0.0865485   1.4399775  -0.9538484  -0.6378883
  -0.0915975   0.1389985  -0.0288369  -0.3036985   0.3500608  -1.2670246
  -1.8780916   0.7087946  -1.0411044   0.1831001  -0.0491582  -0.1819109
   0.0926179   0.7755959   0.0492315  -0.7567179  -0.8895018   0.9421655
   0.0241782  -0.1652117   0.3640399  -1.7521952   0.2266179   0.6457581
   1.3269915  -0.7249882   0.5855039  -0.2500027  -0.1732176   0.0211344
  -0.5350880  -1.4438818  -0.7102571   0.4819544   0.5246874  -0.8408157
  -0.0644185   0.2262254   0.2094932   0.9973720   0.6065028   0.3679859
  -0.3012984   1.4949859  -0.8480428  -0.0982777   0.0626169   0.1276313
  -0.0534115  -0.8756279  -0.3940957  -0.9394347   0.7991887   0.6035601
  -0.0640223  -0.0409116  -0.0948526  -0.8175484  -0.2399546   1.0376666
  -1.2541726   0.3837987   0.1220373   0.0144025  -0.1357257   0.1424879
  -0.1290258   0.4703592   0.8029151  -0.1139781   1.7296422  -0.2038520
  -0.1733375   0.0810991  -0.0654887  -0.3123105   1.6195750  -0.3691994
   0.1462230  -1.1346984  -0.1743806   0.2332628   0.0902105   0.1193318
   0.7466058  -0.4044791  -0.3645931   0.6882792   0.1852669  -0.0939273
   0.1880135  -0.4927584   0.1183498   0.3105174  -0.4631715   1.2820228
  -0.7509932  -0.9632330  -0.0027357  -0.0984012   0.1071635  -0.0522576
  -0.5079254   0.8639132  -0.8970698   0.0940837   1.2640248   1.6714389
  -0.0470246   0.0016721  -0.2714613   0.8507613  -0.2161751   0.0221420
  -0.5878022   0.3214017   0.0073237  -0.2139374   0.2133477   0.5080847
   0.3572385  -0.4876642   0.8497843  -0.7048308   0.3359713  -0.4204329
  -0.0598306   0.1149410  -0.0101946  -0.7293443   0.5794882  -0.2852616
  -0.7023952  -0.6554044  -0.8123923   0.1192670  -0.0268042  -0.1167038
   0.0930587  -0.5266811   0.9687739   0.0736787  -1.6533722  -0.0080660
   0.2616950   0.3971003  -0.1472201  -1.2734024  -0.0815772   0.4464740
  -0.3864698   1.0339006  -0.3110853   0.2116667  -0.3215643   0.1494104
   1.6096117   0.7855392  -0.5872766  -0.4901448   1.2825144  -1.0914433
  -0.0839729  -0.0643728  -0.0798123  -0.6164033   0.6564803   0.0808285
   1.0541073  -0.0691391   1.7762415   0.2096516   0.0376130  -0.1968280
   0.5557386   0.6546047  -0.9824752  -0.2428538  -0.2266280  -0.1490554
   0.1771876   0.1381841  -0.3090492  -0.8177161  -0.3860365  -0.3399798
  -0.2691228   1.2492721  -0.0258515   0.0127544   0.1772690  -0.0111498
   0.0713658  -1.2940015   0.7550001   1.2078012   0.2671613   0.3216595
   0.3391793  -0.3455959  -0.1200024   0.6342784   0.7227461  -0.6422868
   0.1651917   0.9234529   0.7145441   0.1105012   0.1393402   0.2936880
  -1.6002823   0.0913754  -0.4166453   0.5156112  -1.3137336  -0.2408278
  -0.0691536  -0.0346874   0.0279433  -0.0454833  -0.3344409   0.9775065
  -0.0866273   0.7108877  -0.2678576  -0.1173530   0.0489231   0.2377664
  -0.7830565  -1.1413905  -0.1778210  -0.7807839  -0.8417153  -0.3513228
  -0.3923533   0.0913789   0.0534733   0.1929589   0.6350373   0.4299557
  -0.1441811   1.4268832   0.4604109  -0.0596877   0.0555273   0.1952803
   0.7094143   0.1516275   1.1634101  -0.5127590   0.1613571  -1.4680095
   0.0708380   0.0167733   0.2127347   0.4334599  -1.0839125   1.0651663
   0.4501412   1.0127511  -0.2106088   0.2802713   0.0870016  -0.0075994
   0.8451543   1.7416467   0.4486289  -1.1964094  -0.8859093  -0.2741637
   0.0061722   0.3360874  -0.0616233  -1.2890810   1.2996460   1.1433721
  -1.1018574   1.6368344  -0.5343539   0.2813099  -0.0100364  -0.1342393
  -0.1494735  -0.3637067  -0.9099522  -1.0034487  -0.6194304  -0.1596095
  -0.3056230   0.1828134   0.1443952  -0.4971548   0.4908645   0.4841737
   0.3961192   0.0920253  -0.4246459   0.0960337   0.0966794   0.2956221
  -0.3336555   0.5707904   0.3264376   0.7012459   1.1738565   0.4268163
  -0.0998598  -0.5072645   0.1109110  -0.2074573   1.0408458  -0.6014625
  -0.4029353  -0.0854063   1.4659174   0.3232511  -0.2956914   0.1410458
  -1.4925456   0.3417628  -0.8002642   0.7450943  -0.5363433  -0.3712754
  -0.0777779  -0.0404777   0.0430030   0.5405966  -0.8944508  -0.8792826
   0.5560569  -1.0797569  -1.2541792   0.1095377   0.1654005   0.4104705
  -0.8435284   0.5487223   0.2372949   0.8617238  -0.1477721   0.5179023
  -0.0562956   0.2930977   0.1542232   0.7235665  -0.7080396  -0.8909979
   0.0466145   0.3729406   2.0229665  -0.1544773   0.1431042  -0.0075087
   0.1214499   0.7507517   0.0841048   0.4925066  -0.4205034   0.3034354
  -0.0144947   0.0952902   0.0433980  -0.3507559   0.4519597   0.2192474
   0.8949749   0.2304881   0.1623080  -0.1618179  -0.1737641  -0.1241024
  -0.6734344  -0.1962665   1.6236270  -0.1091259   0.1037153   1.0575185
  -0.2401445  -0.1559043   0.1135403   0.9777174   0.3407121  -0.0346712
   0.9921359   0.4521421  -0.7942531  -0.2547937  -0.3018421   0.2503232
   0.2123257   0.6912678  -0.6101919   0.6788367  -0.6390029  -1.1254294
  -0.0203642   0.1262048  -0.0420804  -0.5131536  -0.3649257   1.1579005
   0.0949579  -0.0902703  -0.4922683   0.3952642   0.3666255   0.0947987
   0.6917634   0.9328313  -0.8907609  -0.2910832  -0.6863421   0.3479896
   0.0878718  -0.1979779  -0.0055109   0.4424867  -0.3675554  -0.4015430
   0.2834640   0.6849596   0.2432299   0.0813445  -0.0615229  -0.3711798
   0.1300212   0.4445864  -1.1692177   0.0722089   0.0202043  -1.4859058
   0.0990968   0.2323278   0.0830941   0.5403237   0.4876639   0.6735591
  -1.1826378   2.1619219  -0.4844176  -0.1967453   0.0750879   0.3081498
   0.4454008  -0.5277884  -0.8313612  -1.0975813   0.3699781  -0.3984372
  -0.0126887   0.0485924  -0.3383804   0.4585440  -0.1968388  -0.3004461
  -0.3090374   0.1685372   0.0383384  -0.1052363   0.1893304   0.0855431
   0.8916736   0.3875936  -0.4442955   0.3546308  -0.3994103  -0.0168637
  -0.2546340  -0.3210568  -0.0558321   0.3395617   0.7627464  -0.1240048
  -0.9054916  -0.8690520  -0.1166149  -0.1204040  -0.0681339   0.0467332
  -0.1657662   0.3749634  -0.4298073   0.2534034  -0.2131517  -0.1405231
   0.1966044  -0.0512103   0.0421646  -0.8787610  -1.1672153  -0.4365848
   0.7403649   0.8560553  -0.0007870   0.2583601   0.0012837   0.0799131
   1.3071376  -0.0062068  -0.2604070   1.7469168  -0.7777548  -0.2080024
   0.1705686   0.2268437   0.0445005   0.0073242   0.7824576   0.4442079
   0.3911176  -0.0403597   0.5227637   0.0385894  -0.2430013   0.1797787
   0.6439960  -1.0884196  -0.2113563   0.8231778   0.5922719  -0.5606389
   0.0480219  -0.1073630   0.2657837  -0.2744471  -1.1584687  -0.9021367
  -0.0212091   0.5088278   1.2785945  -0.1605681  -0.0549019   0.2322199
  -0.1212115  -0.4164505   0.0022202  -1.2189597  -0.2554368   0.8670908
   0.0550462  -0.2053420  -0.0185808  -0.2007347  -0.8824685   0.1854036
  -0.4624358   1.6193446  -0.5220073  -0.0261921  -0.2547764   0.1893187
   1.1840486   1.0632516   0.6972131   0.5355083   0.8245031   0.1230583
  -0.0707873   0.1906762   0.0501653   0.3232185   1.6356526   0.1660177
  -0.9116197  -0.2264446  -0.4671719  -0.3032431  -0.1039119  -0.2899725
  -0.0532660  -0.4344007  -0.6037530   0.0910806  -1.8712177   0.9093778
   0.3503324   0.1979959   0.0273794  -1.2121691   0.0496017   0.5419186
   1.5088708   0.3411643   0.0138333   0.5186931   0.1129379  -0.2511063
  -0.8414531  -0.2359840  -0.5928757  -0.6227296  -1.1013897  -1.4128757
   0.3738372   0.0763288  -0.1308569  -0.4394291   0.2290786   0.0291222
  -0.5152223  -0.8295474   0.4218164   0.1828379   0.2331815   0.2184195
  -0.4114035   0.9735927   0.6423540   0.2156212  -0.3347715   0.4318512
   0.1392625  -0.0048981   0.4623756  -0.1475583   0.2802352  -0.2328986
  -0.4500399  -0.0874743  -0.0267847   0.0044228   0.3157731   0.2753565
  -0.3567103  -0.8627616   1.0513583   0.1618780  -0.2268756   0.9732863
  -0.0611392   0.0952375  -0.2123609   1.7534491   0.9589545   0.6781989
  -0.3306142  -0.1170149  -0.5792816   0.1295955   0.1106091  -0.3503422
  -0.5784185  -1.7925380  -0.1401088  -1.7274174  -0.7671953  -0.0867933
   0.2329787  -0.1975937   0.2880507   0.2047445   0.9292382   0.4651439
   0.4501416   0.1649538   0.8339720  -0.0289874  -0.0383628   0.2019041
  -0.2483325  -0.8449956  -0.3735896   0.2289325   0.4654743  -0.7499612
   0.0397414  -0.1104989  -0.1511131  -0.5163935   0.9659236  -1.8604216
   0.6055275   0.5129541  -0.0065844  -0.1635258  -0.2396391  -0.0933372
  -0.3451296   0.3913399   0.7995648   0.6179789   0.0301480  -0.1800687
  -0.1245552  -0.2421783  -0.2436606   1.2801622  -0.2798370  -0.2714363
  -0.1759240   1.8293644   0.1786324  -0.0859973   0.0187408  -0.0768734
   1.5255888  -0.2930985  -0.5694539   0.1341278   0.0746517   0.7655749
  -0.1389656  -0.0174500   0.1152864   0.7770288  -0.5674584  -0.9053655
   0.6262111   0.4637575  -0.0380334   0.1001512  -0.1106661  -0.2359406
   0.0865863  -0.0704389  -0.9273952   1.0393869   0.5008694   0.3343176
   0.1250327   0.0647307  -0.1313010  -0.5003502  -0.3301398  -0.7472903
  -0.7696701   0.1499584  -0.5780938  -0.0791872  -0.0053866   0.0731001
  -0.3100011  -0.4201451   0.0932004   0.0183264   0.1492474  -1.4786229
   0.1584005   0.0173979  -0.1092838  -1.5217199  -1.1295795   1.0311056
   0.7131644  -0.0693299   0.4746020  -0.2043604   0.0413246  -0.0712008
  -0.6694720  -0.0996224   0.7578589   0.2916967  -1.1705369   1.5550297
   0.0188607   0.1331722   0.1780160   1.1928898   1.1983506  -0.5272488
   0.9537420  -0.6850268   0.1222603  -0.2910344   0.3125278   0.1978136
   1.1847503  -0.0040529   1.0265908   0.2153087  -0.7495577  -0.7645758
   0.1974156  -0.3003377  -0.0144596  -1.5842489  -2.3434997   0.7894028
  -0.1645651  -0.2428112   0.4783600  -0.1070530  -0.0523804   0.0504922
   1.4244323   0.4876817  -0.3646583  -0.3846751  -0.0537863  -2.1037091
  -0.1621434  -0.0723084   0.0248177   0.6092093   0.2770340  -1.5672889
  -0.1176553  -0.8968353  -0.8854852   0.0604797   0.2435266   0.0539907
  -1.2294236   0.0772962   0.6443599   0.3377726  -1.1830332  -0.5395594
  -0.0557856  -0.0783394   0.1485855  -1.1932982  -0.2937910  -2.0559830
   0.5699466  -0.3131543   0.0460070   0.2196279   0.2116970  -0.1452594
   0.0733478   0.6147745   1.0928689  -0.4421117   0.0962018   1.1134486
   0.2057371  -0.0457892   0.0997437   0.2910014  -0.1563733  -0.1931616
  -0.4747641  -0.9374487  -1.3582266   0.0305133  -0.0655702  -0.0840988
   1.0905026  -0.4175246  -0.2852598  -0.2142823  -1.0437878  -0.6190419
  -0.1635305  -0.3768901   0.0492176   1.1100360   0.4309716  -0.9872275
  -0.8437716   1.3850443   0.2199326  -0.2963675   0.1812079  -0.0882683
   0.9982528  -1.1779987  -0.8412630   0.6670232  -0.8744720   0.7879648
   0.0616894  -0.1539389  -0.2661007   0.7633929   0.1107729  -1.0084511
   0.5588097  -0.5314106  -0.7619478  -0.0440438   0.0435100  -0.3341538
   0.5913019   0.1654032  -0.5609662  -0.0350969  -1.4274704  -1.8467832
  -0.3160422  -0.0057141   0.1914100   0.5184518  -2.1601782   0.3326611
  -0.6838983   0.8034344  -0.6364266  -0.0341711  -0.1496982  -0.0511421
   0.8479676   0.5171977   1.6960378  -1.1602364   0.0595913  -0.0886856
   0.0228914  -0.3852541   0.0490796   0.0093941  -0.9698157   2.0438774
   0.5046429   0.1713012  -0.0869598   0.2093495   0.1201330  -0.0576108
   0.0737510   0.0844048   0.4940272   0.2446926   0.5846057   0.9260874
  -0.1265242  -0.1145498  -0.3523947   0.0336265  -0.2476553   0.3934351
   0.3436745   1.2600340   0.5079889   0.2310690   0.0352666   0.4163494
  -0.3167689  -0.3582270  -0.1129426   0.3352884   0.1491347   1.1959339
   0.1625258   0.2115814  -0.0158279   0.1067257  -0.0022138   1.2793137
   0.4148202  -0.0464802   0.3877338  -0.0959167  -0.1899480  -0.3715370
  -0.6451555  -0.2650041   0.2150394  -1.4478347   0.1930816  -0.8119981
   0.0311587  -0.3002820   0.3662976  -1.0318928   0.6055431   0.0923617
   0.3816467  -1.0082377  -1.6416698   0.1511799  -0.2135841   0.0933394
   0.0400783  -1.2992767  -0.5980238  -0.0010623   0.5566915  -0.0014359
   0.0715772   0.3227124   0.1858520   0.1084455  -1.2129183   0.0755869
  -1.4882279   1.4073702   0.0091355   0.0773241  -0.2762070   0.3847837
   0.1495145   0.4605490   0.8629806   0.0833758   1.6929092   1.6761699
   0.0836339   0.1288318  -0.4881331   0.2454007   0.5151231   1.4566370
  -0.1433500  -0.5536618  -0.0759059   0.3307351   0.0981799  -0.0987046
   0.4224024   0.9560516   0.5265150   0.4801668   0.0084301  -0.0816733
   0.0082735  -0.2486530   0.1554153  -0.1638083  -1.1035072   0.7347904
  -0.3206896   0.1221692  -0.8721226  -0.0738575  -0.0377632   0.2538116
   0.8138766   0.1700366   0.3976858  -0.7698226   0.1392580   0.3057813
  -0.0165037   0.2569564  -0.0866166  -0.0953696   0.1719662  -0.5042681
  -0.6269914   0.6870987   0.6312803  -0.0026228   0.0119809   0.0484932
  -0.2399366  -0.4756969   1.2971331   0.1146596   0.4518690   1.8827514
   0.0283988  -0.0893321  -0.0019319  -0.6024355  -0.2525017  -0.0348956
  -0.3633762   0.2542913  -0.9191637  -0.2543659  -0.2885152  -0.2292889
  -1.3106612   0.6454643   0.2292180  -0.2360382   0.0377618   0.7689247
   0.0712186  -0.1126245  -0.0060608  -1.9018514   1.4342114   0.3776196
   0.2135875   0.5987361   0.0198551   0.3206377   0.2694351   0.2684683
  -0.6964896   0.1834370  -0.5615805   0.3126765  -0.2336243  -0.5094731
  -0.0529051  -0.1199962   0.0568174  -0.5178667  -0.0250999  -0.3199221
  -0.2366189  -0.2696607  -0.2353986  -0.1368313  -0.2023636   0.2398503
   0.6458719   1.3009146   2.0573390  -1.1285420   0.7321522  -0.4503075
  -0.1467459   0.2616592  -0.3679099   0.0918853   1.9918673  -0.9258184
  -0.1656638  -0.2505666  -0.8057686   0.2218238  -0.2811511   0.1638467
   0.5539948  -0.4653312  -0.0097426  -0.1336303  -0.0560597   0.3108787
  -0.1424661   0.1486041   0.1188276   0.5482208   1.4540431  -1.0662558
   0.4168885   0.7069362  -0.7699877  -0.5356434  -0.0699358   0.0371724
   1.4228737   0.0503415  -1.2904908  -0.3488817   0.5724805  -0.2201085
  -0.4710018   0.0736627  -0.2442836   0.2996911   0.2937303   0.5453747
   0.8966472   0.1426924   0.9323407  -0.1225432   0.3754266   0.1833818
  -0.9901108   0.1649257   1.2683882   0.3873412  -1.1062541   0.7355542
   0.0661940  -0.3313194   0.0141726   0.7697295  -0.8614224  -0.8716633
  -0.1533619   0.7881828  -0.0944083   0.2439896   0.2266725   0.1805091
  -0.1744066   0.0638556  -0.2850414  -0.5435336   0.7226118   0.1968692
   0.1714706   0.4812614  -0.0617581  -1.1930821  -0.7909261   0.1491812
   0.1902431   0.6660992  -0.8133308   0.0804396   0.1625505  -0.0454401
  -1.1548564   0.1546575  -0.7855781   0.5160358  -1.2557162  -0.4876293
  -0.0915567  -0.2104196   0.0754705  -0.2646653   0.5266060  -0.1727407
  -0.7155145  -0.7789348   0.6467736   0.1097841   0.1985861  -0.2816824
   0.3039939  -0.9819077   0.5866180   0.3891317  -1.3793160  -0.3287550
  -0.0731046  -0.1165780   0.1818461  -0.3359488   0.1669152  -1.2598374
  -0.2652036   0.6500787   0.7338773  -0.0091652   0.0810975  -0.3023562
  -1.7638128  -0.2257689   0.3937188  -0.0141729  -0.6050485  -0.0349764
  -0.1246599  -0.0093272  -0.0311640   0.2045415   1.6784657  -0.9833128
   0.8128752  -0.7843813   1.4393391  -0.1191997  -0.1136214  -0.0553470
   0.0282514   1.7440433  -0.6886715  -0.0411655   1.1766557   0.4591934
   0.0706769  -0.2569204   0.0677653   0.5321147   1.3878881  -0.5067248
  -0.5269597   1.8068857  -0.7435330   0.3467921   0.0898355  -0.0404284
   0.6219175   0.1060672   0.2094064  -0.0884846  -0.5464387   1.8156191
   0.1203183   0.0090595  -0.0428343  -0.7376566  -0.7050554  -0.5185013
  -0.6063781  -1.0782078   0.3155953  -0.0598590   0.1969303  -0.1898572
   0.1638977   0.5770159  -0.0204143   1.6098426   0.6953227   0.3160212
   0.0000934   0.1611359   0.2075358   0.4380121  -1.1964865   0.8331405
   0.9093915  -0.6656216   0.4369407  -0.2159070  -0.2962782   0.4096387
   0.1979594   0.3964511  -1.0322538  -0.1962157  -0.8734976  -0.0503690
  -0.1954757   0.2858528   0.0918023  -0.6107478   0.6648574   0.2195936
   0.6588852   0.1396893  -0.2498034  -0.1114305   0.2605284   0.1013906
  -0.4373419  -0.8703174   0.8782287   0.7424376   0.0713279   0.2439330
  -0.0738975  -0.0052525   0.2009475   1.1361464   0.8619083   1.2319214
  -0.6654824   0.0513447   0.2865210   0.2120585  -0.0910462   0.0832486
   0.0694248   0.1531417  -0.3953640  -0.4695222   0.7188605   0.2112412
   0.1574905  -0.0506494   0.1337802   0.0902817  -0.8041148   0.3073881
   1.4569936   0.1444690   0.5206741  -0.1428583  -0.3675953  -0.4708003
  -0.3884238   0.4360034  -0.7089386   0.7763766  -0.5281728   1.3975923
   0.2242566  -0.2297013   0.0846616   1.8055706  -0.1294290   0.5539133
  -0.0664866  -0.1192322  -1.4708107   0.1043209   0.1454329   0.1621249
   0.9460755   1.4827180  -0.2804198  -0.6690478   0.7294429   1.0518727
   0.2198235   0.0997126  -0.3741734  -1.4692557   0.4272884  -0.2371798
   1.6402322   0.4079680   1.3250075  -0.1128391  -0.2027275  -0.1796227
  -0.7145015  -1.6006868   1.0084004  -0.0138593  -1.3998569   1.2671261
   0.1138003   0.3202938   0.2238353   0.1425270   1.1327983   0.3748192
   0.0242735   0.4922217  -0.4257789   0.0691777  -0.2072288   0.0853357
   0.0002768  -0.1406342   0.6428484  -0.1601207  -0.6117388   0.6952892
  -0.0250689  -0.0390558  -0.2871605  -0.9448952   0.9174958  -0.6766133
  -0.4817889   1.0804041  -0.2191595   0.1197310   0.1372999  -0.0845662
   0.2070017   1.1849590   0.5528979   0.3499778   0.6539976   1.3506522
   0.0257372   0.0074016  -0.0872778   0.7554510  -0.3215301   0.1533469
   1.3954651  -0.4033497   0.5151674   0.1385703   0.1950868  -0.3931182
   0.9728304   0.6452800  -0.8900708   0.5032099  -0.1521267   0.3675717
  -0.1665940  -0.0635460   0.2176842  -0.1103578  -0.6499977  -0.2817125
   0.1731643  -1.0775860   0.5765331  -0.3694516  -0.1872399   0.2176908
   0.3046492   1.0325313  -0.1475922  -0.9561079  -1.7202002   0.4056773
  -0.0552520  -0.0829884   0.2402658   1.4108606  -0.8674675  -1.1208718
  -0.4834689   0.2124659   0.0247826  -0.1429030  -0.5169583  -0.0785621
  -0.1396944   1.3079463  -0.4232823  -0.0665805  -0.2932702   0.3729054
   0.1217778   0.0287503   0.2369167   0.4923060  -1.0873839   0.5392471
  -0.4517355  -0.6543385   0.3419215  -0.4709622   0.1042575   0.1389188
   0.6503889  -0.4972345  -0.2210005  -0.7989880   2.0163821  -0.9029262
   0.0135009  -0.3879873   0.2812536   0.0424124   0.0741741  -0.7711149
  -0.7718106   0.2910220  -0.4675246  -0.1288171   0.3211203   0.3678787
  -1.0442254   0.0875134   1.3840766   0.2719283   0.4351415   0.8205595
   0.0580818   0.1595238   0.1712152   0.9533865  -0.2838339   0.2633905
   0.2216621  -0.3914133  -0.4375509  -0.2286036  -0.0102541   0.1774697
   1.5309753  -0.7550813  -0.3025613  -0.2913000   0.3727533   0.7022793
  -0.1082998  -0.0763275   0.4023445   1.2105779  -1.1718885  -0.7167727
   0.0959992  -0.6274832   0.8105445  -0.0144982   0.0281972   0.0188589
  -0.4319326   0.7962526   1.0745835  -1.1153467   0.9127047  -0.2180691
   0.0351850  -0.1294440  -0.1028721  -0.4612460  -0.6259740   0.1269641
   0.6998296  -0.1986134   0.4808201  -0.1417662  -0.0472260  -0.0063089
   1.5508680   0.8909974  -0.1779370  -0.2792582  -0.9233385  -0.4055553
  -0.2370299  -0.0162291   0.3796600   0.9992706   0.0380075   0.3043281
  -0.3501023   0.6255000  -0.3390449  -0.1164625  -0.2158539  -0.3150197
   0.3272540   0.2104557   0.3161222   0.0416667  -0.7684938  -0.4702756
  -0.3113582  -0.1163775  -0.2935334  -0.0511330   2.2574990  -0.1964231
  -1.2170830   0.0776252  -1.3434322  -0.2170820   0.2952572  -0.0597559
   0.0988953  -0.6363346  -0.5107060  -0.9837384   0.4373469   0.0727323
   0.2126680   0.1647193   0.3339680   1.4630725  -0.6955084  -0.4588639
   2.0350214  -0.6696268  -0.3636405  -0.1290122   0.1979900  -0.0059128
   0.7830582  -0.3548842   0.7958674   1.3929239  -0.3928447   1.4621646
   0.3649146  -0.0762288  -0.1320343   0.7273904   1.2750831  -0.0194762
   0.4477937   0.1673917  -0.6534990   0.1430449  -0.2084902   0.0432063
   0.9439671   0.4151819  -0.8258942   0.5348792   0.4189673  -0.3970328
  -0.0803207   0.0666993  -0.0892365  -0.3411057   1.1812523   0.9056876
   0.4893793  -1.4330484  -0.0666954  -0.2122316   0.3080697   0.3849353
   0.7295647  -1.4547378  -0.4577064   0.8261529  -0.6288273  -0.0986642
   0.2182686  -0.1044523  -0.0687791   0.4289282   0.5332729  -0.5012198
   0.8762409   0.6273475  -0.2825724   0.0698928   0.2111906   0.0249327
   0.4128838   1.0331814   0.1273803  -0.4861634   0.5264941  -0.3973877
   0.0312876   0.0965263  -0.0278710  -0.0556806  -0.3900260  -1.6388458
   0.0697081   0.0603615   0.4034467   0.1924197  -0.2270079  -0.1050177
  -0.2547046   0.7841076  -0.3136972  -0.1834088   0.2108000  -0.2340613
  -0.3238472   0.0038512   0.1376802   0.2289692  -1.0241122   0.5248395
  -0.4499135   0.6994609  -1.0107958   0.0133249   0.0904608   0.1059968
   1.4461852  -0.0364657  -1.1589498  -0.3867053   0.5734761   0.0174991
   0.1899470   0.1023352  -0.2461247   0.5600006  -1.2521246   1.1454330
  -0.1599806  -0.9904211   0.9707697   0.0826268   0.2828965   0.1402400
   0.0024090  -0.0688775   0.8919636  -0.1995721  -0.0806209  -0.5126975
  -0.4526967  -0.0941711   0.0760605   1.1590036   0.4203556   0.2255190
  -0.6520402  -0.0628662  -0.3961810   0.2469284  -0.0383295   0.1083659
  -1.7579491   0.5091001  -0.4880846   1.2784378  -0.1488039   0.9044864
  -0.1387407   0.1105046   0.3213229   1.8791287   0.5907422  -0.8770441
   1.6973986   1.2890126  -0.3263925  -0.3902277   0.0784661  -0.2323038
  -0.1800970   0.5347334  -0.1727013  -0.5619728  -0.1419028  -0.3549086
   0.0861635   0.3384424  -0.0985564   0.4998068   0.2331569  -0.0087030
  -0.2505486  -0.4974116  -1.2233345   0.0309286   0.3827590   0.0729208
  -0.0051594  -0.5352061   0.0545078   0.2566220  -1.3312626   0.7721097
   0.4890032   0.0443465  -0.1978184   0.3078100   0.5528297   0.0350126
   1.2088201   0.5395507  -0.0875091   0.0306018  -0.4354665  -0.0447067
  -0.9717822  -0.7449224  -0.9964527   0.8573324   0.6301383  -0.1890244
  -0.1872012  -0.0288135   0.0478889   0.5004832  -0.2487004  -1.1456059
   0.5185874   0.3822116   0.3360458  -0.3447309   0.0525912  -0.0526187
   0.3666586   0.7665219   0.3592820  -0.3463389   0.6395395  -0.1793326
   0.1859539  -0.1742110  -0.3221436  -1.2909437   0.4298268   0.8669246
   0.2735329   0.2235824   0.6741245  -0.0866362  -0.5078831   0.3126802
  -0.3638912   0.5114141  -0.6496321  -0.8712894   1.0575302  -0.7769055
  -0.3009129  -0.2025580   0.3791747  -0.7450502  -0.3270272  -1.2227691
  -0.2565788  -0.1371370  -0.0872999   0.3602304   0.1182571   0.3039290
   0.6938280  -0.4092601  -0.0655795   0.1466676   0.5456951  -0.1714808
   0.1755930   0.0610859   0.0343239   1.4862463   2.2532059  -0.6960295
  -0.0931214   0.7061767  -1.0416815  -0.2142009   0.0227198  -0.2840229
   0.3220456   0.8871639   1.5603640  -0.1167924   1.1957666  -0.5360167
  -0.0761104   0.3316283   0.0743668  -0.5765861  -0.6164295   0.5729925
   0.2464010   0.1833038   0.4573578  -0.2095714   0.1508133   0.0177304
  -1.2278831  -1.0157606  -1.0415851  -0.4264807  -0.7367662  -1.4242495
  -0.1800161  -0.0885825  -0.0502111  -0.5467659  -0.1255996   0.1498423
  -0.2726418  -0.0199571   1.3014106   0.1744646   0.1926301  -0.1323122
  -0.2974159   0.1295641  -0.8422653   0.2954106   0.1765102   0.0073848
   0.1906655  -0.0170810  -0.3285827  -0.8445437  -0.1751513   2.0129893
  -0.9277930   0.3870627  -1.1087271   0.1075448  -0.0805469   0.0505345
   1.1323953   0.6076480  -0.2773714   0.0022193   0.1862531  -0.6976081
   0.1968547   0.1903449  -0.0919463   0.1660392  -1.1810378   0.0904345
  -1.1895586  -0.2963771  -1.0254893   0.0269663   0.4419788   0.4215356
   0.3057644   0.4720855   1.0248865   0.6765368   0.4757549  -0.1594021
   0.2749148   0.0114951  -0.0953960   0.2725939  -0.5595861   0.4618617
  -0.1706238  -0.2309340   0.2087229  -0.2578455  -0.1881710  -0.2154068
  -0.5011749  -1.3730215  -0.6615560   0.4340438   0.1489386   0.2616608
   0.2814512  -0.1415456   0.0456074  -0.2230482   0.7040868  -0.0186634
  -1.3181418   0.3029918  -1.2836109   0.0932287  -0.3445051  -0.1385438
  -0.7839354  -0.9796017  -0.8317264  -0.7817169   1.0063569   1.0613799
   0.1284521  -0.0453859   0.1751977   1.2727218  -1.1361932  -0.1850007
   0.8290222   0.0652745   0.5671296   0.2714071  -0.1632912  -0.2923345
  -0.2879092   0.8259202   0.5891588  -0.2277114   0.1860935   0.2961229
  -0.0840932  -0.3742178   0.0530124   0.1958730  -0.7598651   1.6888816
   0.3714596  -1.4227203  -0.3575148   0.3312397   0.0740986  -0.0906282
   1.4733555  -1.3743692  -0.3170654   0.6686885   0.7152566   0.0362316
  -0.2205720   0.0377858   0.0772193   1.4768504  -0.3747296  -0.3151932
  -0.0359862   0.2276807  -0.0372954  -0.2205775  -0.2490858  -0.1333878
   0.9678302   0.2758655  -0.0461508   0.2134020  -0.2297243   0.2408587
  -0.1230502   0.0816685  -0.2354996   0.9573488   0.6803696   0.5005868
  -0.5579457   0.1968296  -1.5342714  -0.2063342  -0.1687123   0.0598642
  -1.5205078   0.0055280   0.4562257  -0.2843984  -0.0477835   1.1928500
   0.1298628  -0.4139841  -0.1481743   0.3841982   0.5879812  -0.1511079
  -0.5821194   1.0715551   0.0749180  -0.1371894  -0.0694933   0.0036629
   0.2868237  -1.2695594   0.3765177  -0.4042048  -0.2714170  -0.2687770
  -0.1040985   0.1641848  -0.2235190   0.1598115  -1.2886407   0.7454849
   0.4231666   0.9535974  -0.6153332   0.0261971   0.0411809  -0.1052900
  -0.7402103   0.6950272  -0.8388059   0.7440200  -0.0550379  -0.3099741
   0.0115966  -0.0566451  -0.0683319  -0.2681200  -1.8080084  -0.5789082
   0.0391419  -1.2413598   0.1177449  -0.0843943  -0.3046866  -0.0476547
   0.0613118   0.0366074  -0.7372871   0.7721139   0.1179375  -0.2452646
  -0.0723914   0.0680187  -0.3132808   0.0989166   0.4675021  -0.0353050
   0.0865877   0.6827708  -0.0468159  -0.0441247   0.0323829   0.3327464
   0.6192845   0.4184675  -0.3465866   0.5604271   0.9866956   0.8139497
  -0.1647990   0.1630253   0.4878372  -1.5817657   0.7810372  -0.6236750
  -0.2280364  -0.0787227   0.2450159  -0.0529377   0.3251853   0.0442100
  -0.0398228  -0.1227577   1.4929449   0.3862846   0.1032872  -1.0770007
  -0.1642518   0.0476346   0.1910854   0.6207750   0.7213929  -1.1577488
   1.0110598   0.1066033   0.3799078   0.1762131  -0.1957337   0.0858603
  -1.1120766  -0.0355017   0.3234062   0.6225541   0.5629983   0.1447023
   0.4300009  -0.1932871  -0.1113207  -0.5047243  -2.2104141   0.4443306
   0.5419566  -0.2358972  -0.2828656   0.2732147  -0.0028322  -0.3776403
   0.9581029   0.0438356  -0.9936180   1.1507451   1.0961871  -0.6626390
   0.1720087   0.1464543   0.0783135   0.3366681   0.5656023  -0.9192836
   0.9193621  -0.2511287  -0.8178993  -0.1130457  -0.2399715   0.1596533
  -0.6015505  -0.9212343  -0.7300455   0.5178026   1.1988468  -1.0304796
   0.0158996   0.3020431   0.2071087  -0.2855024  -0.1369781  -1.1134556
  -0.9455522   1.1642647   0.5595873   0.0814563  -0.2827031  -0.1525523
   0.4884414  -0.4165649   0.5314803   0.1606497   0.6697933  -1.0063924
   0.0815495  -0.0619682   0.0198824   0.6126136   0.4150096  -0.6471692
   0.5460338   0.6234689   0.8911880   0.1600421   0.0505979   0.1518176
  -0.5259393   0.6671413   0.1065127  -0.0053682   0.4113456  -1.4808974
  -0.1312407   0.0310127   0.3640628  -0.3436350  -0.2029010  -0.1993457
   0.0397916  -1.1753199   0.3776007  -0.2120013  -0.1388333  -0.2052655
  -0.2081690   0.4519290  -1.2233464  -0.1988292   0.6607032   0.9888447
   0.1402315  -0.2473577   0.3332087   0.2525881   0.2800712  -0.3067209
   0.6620919  -1.5798387  -0.6643208   0.4200433   0.3325342   0.0424748
   1.4553935  -0.9803260  -0.0297051  -0.6100320   1.5909784   0.0782176
   0.2362820  -0.1215908   0.0909098  -0.0808407   0.9542554   0.1927743
  -0.1838763  -0.2238929  -0.5095032  -0.2717826   0.0541923  -0.3174242
  -0.7054921  -0.8587424   1.0649569  -0.1583052  -0.4341759   0.5060756
   0.0941867  -0.2494574   0.1578642  -0.9407896  -0.0470287   0.1916130
  -0.6568643   0.9105173  -0.2304018   0.2598427  -0.2449707   0.0949350
   0.7135146   0.3981868   0.3342897  -1.0155585   0.1682683  -0.1519973
   0.1295379  -0.1671523   0.2772861   2.2001642  -0.9413715   0.5362806
   0.3421403   0.6521930   0.9116249  -0.2439893   0.1433676   0.3163935
  -0.3686461  -0.2478766   0.5070642  -0.4304386  -2.1718237  -1.0792161
   0.0966705  -0.1091034  -0.1360167   0.6291347   0.8533757  -0.4080286
  -1.1595319   0.2984273  -1.2540271   0.1603109  -0.3451136   0.1466043
   1.6542276   0.5284392   0.0539790  -0.1180363   0.0677663   0.5683958
   0.1326429  -0.0371573   0.1449967   0.9335977  -1.2884997  -0.2492987
  -0.7977073  -0.6220175  -0.3008352   0.0386060  -0.0678917   0.0293497
  -0.6670271  -0.9185738  -0.4111973   1.0754013  -0.4947595  -0.5420239
  -0.0110000  -0.1321819   0.0243587   0.0135391  -0.2364403  -0.9228549
  -1.2911165   0.3919500   0.3215855   0.3674918   0.1203347   0.1024167
   0.4515805   0.4777772  -0.4005739  -0.5304594   0.6352201   0.6813512
  -0.0224402  -0.1934428   0.1171641   0.0510486   0.4777659  -0.6001690
  -0.3566942  -0.8884982   0.2632043  -0.1153417   0.1354498  -0.0563508
   0.1869791   1.3616406  -0.5712735  -1.0575134  -0.6510106  -1.0650797
   0.1932279  -0.1062227   0.0113187  -0.2670584   0.5989321  -0.7422871
   2.1648710  -0.9077437  -0.0649684  -0.2339149  -0.1643063   0.1993036
  -0.6622771  -0.7852945  -1.1071029   1.2477293  -1.1926774  -0.7174194
   0.1177471   0.2718670  -0.0771590  -0.2164556   0.0586073  -0.5939221
  -0.4867677   0.0028748  -0.2437796  -0.0462754   0.0290190  -0.1004331
   0.1553520   0.9087156  -0.4480798  -0.9786423   0.4657461  -0.7961235
   0.0795638  -0.1785034   0.0462713  -0.0009933   0.6019497   0.3623207
   0.5111833  -1.5241505   1.1979581  -0.1740233  -0.0556818  -0.0305076
   0.5086943  -0.5164944   0.7462844   1.0531893   0.1692845  -0.0401464
   0.0428801   0.2314878  -0.0364631   1.0210950   0.3500953   1.1093949
   0.3712981   0.3287192  -0.5590045  -0.3401501  -0.2153029  -0.1530683
   0.2066887  -1.1123619   0.6102523   0.3846299   0.2078601  -0.5557215
  -0.1265427  -0.0750384  -0.2273686   0.7503199   0.1612293  -0.7212397
  -0.0145377  -0.9796684  -0.2711955   0.0113104   0.3822231   0.0715564
   1.2706566   0.2229327   1.5056694  -0.5281033   0.9308006   1.1569985
   0.1624202   0.0821575   0.1295335  -0.3359236   0.9006340  -1.5551485
  -1.4203380  -0.3382911   0.4247373   0.1071192  -0.0314197  -0.0585848
  -0.4209389  -2.2840270  -0.6568280  -1.2350257  -1.0926521  -0.3408056
  -0.2009233  -0.1262123  -0.2212217   0.2057968  -0.1121009   0.5598913
  -0.0576028   0.9894688   1.6033306   0.2600352   0.0292419   0.0769564
   1.7731266  -0.3584676   0.7867694  -0.7327169   0.9714382   1.3212000
  -0.1944416   0.2212006  -0.1861242  -0.5763158   0.2646355   0.0831069
   0.1700030   0.3914194   0.4793885  -0.2105393  -0.1061177  -0.1885712
  -0.4149540  -1.1391411  -0.6942128  -0.9089845   0.2622563   0.6835707
  -0.1684689   0.1742559   0.3848400   0.8327265   0.9263332   1.2437841
   0.7245223  -0.9628752   0.1889703   0.0101352  -0.0584782  -0.3056142
   0.4439794   1.0552408  -0.2469145  -0.3352091  -0.4890894   0.4326429
   0.1078764  -0.0937137   0.1464268  -1.1647075   0.2615067  -0.7081556
   1.3444245  -0.5946256   0.0199741   0.0951618   0.0367422   0.5804276
   1.4658577  -0.8159949   0.3649068  -0.0762327   0.5733189  -1.4337663
  -0.2768761   0.0195627  -0.0448598   0.4507024   1.0471526   0.6703484
   0.0468195  -0.6821001  -0.0945180   0.1618756   0.0187581   0.0613154
  -0.0915819  -0.2194057  -0.1379513  -0.5081738   0.1382102   0.9788886
   0.0823975   0.0434416  -0.2420374  -0.3041405   0.6699113  -1.2115048
  -1.1062659   0.0672463   0.7818948   0.0877957  -0.5046323   0.2597608
  -0.2818444  -1.4177873   1.3194443   0.5496240  -0.0983451  -0.1297834
   0.0112494  -0.2845154   0.1920382   0.4998277  -0.4001383  -0.3243692
  -0.5999040  -0.5975984  -0.6656945   0.0214263   0.0006616   0.0164244
   0.2769071   0.4435614   0.2685667   0.9789963   0.2098086  -0.2612674
   0.2678539   0.0447264  -0.0244650   0.6760334   0.3292667  -0.3018456
  -0.1092652   0.2514328   1.0521345  -0.2928904  -0.1210243  -0.0707369
   0.3906798   0.6301234  -1.4066078   0.1196145  -0.0200537   0.2849819
   0.1417785   0.3293909  -0.0252288   0.1142689   0.3702589   0.3812057
  -0.0057928  -1.3914154   0.3630969  -0.3214693  -0.3410589  -0.1146781
  -1.2213993   0.4696385  -1.9704281   0.2116295  -0.2345611  -1.0657224
  -0.1122387  -0.1337629  -0.1271903  -0.0851036   0.2848367  -0.2799356
   0.2344038  -0.4499850   1.1327174   0.0740082   0.1890610   0.0388994
   0.5585815  -1.4242590   0.1735791   1.5179873   0.3832600  -0.2748102
   0.1168441   0.0199756  -0.1860462   1.1535990   0.9341269  -0.1357834
   0.7199763  -0.0963119   0.9658635   0.0240895  -0.0471619  -0.2039765
   0.4326068   0.3779331   0.8524420  -0.2493845   1.3055615   0.4278136
   0.0017580   0.2069249   0.1661412   0.4921823   0.2332121   1.2179185
   0.1028121  -1.1575618   1.7079389  -0.1795972   0.1568576  -0.0096098
  -0.3285202   1.2434744   0.0607557   0.3285667   1.6672357  -0.7715023
  -0.1714202   0.1714474  -0.0423186  -0.0949973  -0.0419836  -1.0328672
  -0.0004866  -0.3415677  -0.4617676   0.3275422  -0.3813368  -0.1236855
   0.6606043  -1.9441893  -0.9856844  -0.7635072   2.2234229   0.7103136
  -0.0653452   0.1169863  -0.0920571  -0.0562102   0.3883795  -0.0423045
  -0.8898113   0.1358366  -0.7819564   0.0213504  -0.2098971   0.0317102
   0.1291499   0.9907895  -0.3731548  -0.0266521  -0.5281748  -0.0416602
   0.1544301  -0.3930065  -0.0296411   0.6559956  -1.1833378   0.2239975
   0.9510019  -0.0055320   0.3722085  -0.0179547   0.0372589   0.1428026
  -0.8346541   0.6948781  -0.1275670   0.5186470   1.4627719   1.1739540
  -0.0889432   0.1308873  -0.1019901  -0.3866167  -0.1641270   0.1704448
  -1.0143479  -0.4309362   1.3940824   0.1378094   0.0666545   0.2187401
  -0.0205641   1.0048502   0.2635994  -1.2048656   0.5229490   1.2822391
   0.1946782  -0.3552304  -0.1316831   0.2062040   1.4490308  -1.3674237
   0.8550028  -0.7954867   0.5134030   0.2304515   0.4399402  -0.1404007
  -1.6930368  -0.2157148  -0.2733832  -0.9856584   2.3629341  -1.3446944
   0.1593373  -0.3258352  -0.1475791  -0.6309722  -0.2436464  -0.4791127
   0.2880855   0.6127267  -0.4820860  -0.1159296  -0.3724221  -0.2956933
  -1.0827473   0.9624144   0.9983681  -0.1187207  -0.3488280   0.2186909
  -0.0791310  -0.2384852   0.2010091   0.5310978  -0.2093769  -0.7465874
   0.3773136   0.8056529  -0.2048553  -0.2212114  -0.1801992  -0.2120811
   0.9146964  -0.3858567  -1.0430710   0.2704948  -0.9050479   0.7470452
  -0.1724983   0.1689591  -0.1324953  -1.0708145   0.0964678  -1.3209973
  -1.0354043   0.6008524  -0.4404509  -0.1810817   0.0212378  -0.0291362
   0.4236323   0.4872853   0.0263064   0.2126371  -1.7158012  -0.8540258
  -0.2239610   0.2136017   0.0220646  -1.3949262   0.1558399   0.6883516
   0.5553002  -0.4515300   0.1189408  -0.1281895   0.0158167  -0.0318124
   1.7237544   2.3419889   0.4277191   0.0332821   0.4713659  -0.1982367
   0.1164575   0.0092842  -0.0482120  -0.9052312  -0.5942989  -1.2917880
  -1.6025100   0.6681924  -1.1647338  -0.4531842  -0.3699818  -0.0907980
   0.1378662  -0.2231208   0.3408694  -0.2273208   1.1002863  -0.7268068
  -0.2112448   0.1343333   0.1279202   0.0698798  -0.3422931   0.5202247
   0.6885577   0.8059548   0.5202120  -0.0181595   0.0850931   0.0612693
  -0.2697270  -0.4999916  -0.0640715   0.5345256   0.5640897  -1.2068765
   0.1463132   0.2431976  -0.1708771   0.0629686  -0.4574832   1.0571884
   2.1316260  -2.4784680  -0.3665750   0.1686304   0.1632759  -0.3456701
   1.2209783  -0.1967226   1.1356794   0.2265621   0.3335586   0.6105948
  -0.4075691   0.1067359  -0.2090884   0.1418254   1.2598261  -1.1785088
  -1.2436876  -0.2882492   0.3633402  -0.1050639   0.4032539   0.2411049
  -0.4877953   0.3025047  -0.3145698   0.7725678   1.1305251   0.1511161
  -0.0580965   0.0203739  -0.2104863  -0.7823146  -1.9859472  -0.7446781
   1.0349104  -0.4214716  -0.9726935   0.0030320   0.2748787  -0.2781193
   0.5431243   0.1791154   0.6219698   1.1128335  -0.2759194  -0.0628393
  -0.3155834   0.0696348  -0.1080410  -1.7990096  -0.8133210  -1.3848302
  -0.1123015   0.0890763  -0.2186977  -0.3058268  -0.0815712  -0.3080886
  -0.0918386  -0.8483027  -0.2001346  -1.1955748   0.5045625   0.1191878
   0.3192633   0.4857040  -0.2033977   0.8764566   1.2375802  -0.8450333
  -0.9931813  -0.0797314   0.0374257  -0.0469127   0.0120559   0.1292314
  -0.7092255  -0.7191317   0.6466274   1.9117035   0.0501067   1.6404246
  -0.6708438   0.3618739  -0.1560250  -0.2299163  -1.2399472   0.7507205
   0.3670141  -0.4524025  -1.2087222   0.1211239   0.0513495  -0.4046336
   0.0350492   1.2950003  -0.2720889   0.4036350   0.2394315   0.4091522
   0.3070333  -0.0876205  -0.1180728   0.6009061  -0.2093216  -1.5468493
  -0.2050015  -1.1119318   0.7981708  -0.2783297   0.0692626  -0.0594686
   0.8511480   0.5580610   0.6215062   0.8278549   0.4089860   0.7109551
  -0.0425979  -0.2115510  -0.3106891   0.7551229   1.0550204   0.9482647
  -0.9624043   1.2118912  -0.8910457  -0.0587701   0.0222451  -0.3801800
  -0.1857338  -0.7523593   0.2024994  -0.1141027  -1.1273823   1.0514130
   0.1775075  -0.3048590  -0.1391895   1.4108533  -0.7476059  -0.6068873
   0.5062774  -0.2626387  -0.6939579   0.1857178   0.3560611   0.1213539
   0.0851787  -1.6418096  -0.2890950   0.8927020   0.1432921   1.9763458
   0.1871319   0.2406492  -0.3151694   0.6260612   0.0501375  -0.5793831
   0.1544592   0.4554205   0.2798547   0.0136443   0.1132264   0.2335357
   0.1175469  -0.9116558   0.0763869   0.5702563   0.6345963  -0.6246194
   0.0847276  -0.1998215  -0.2266895   0.0675215   0.3198562   0.3004336
  -0.4580145  -0.9631037  -0.3355139  -0.2093247   0.4626086  -0.0937185
  -0.0426342  -1.1171096   0.7485444   0.1889281   1.9021823  -0.2508026
   0.0199031  -0.1138723  -0.2830993  -0.6600045   0.3845332  -0.9330888
  -0.1589956   0.5916089   0.0149995  -0.0175092  -0.0174555  -0.0853951
   0.6654693   0.5950222   0.0872042  -0.1793493  -0.0188292   0.3881027
   0.0591330   0.0165860   0.1236429   0.1819385  -0.5266716  -0.7689833
   0.0853943  -1.2292043   0.0849358   0.2782955  -0.1947390   0.2413245
  -0.6446864  -1.5905683   1.4084726  -0.1518907  -1.5922948  -0.4463531
   0.0040969   0.1043791   0.0339446  -0.4325725  -0.2755317   0.6104055
   0.1389458  -0.0928780   0.2086614   0.1775361  -0.1642823   0.0736755
   0.4604030   0.0876285  -0.3057679   0.1217391   0.7144128   0.6714048
   0.0551682   0.3120348   0.0342917   1.0104626   0.2720234  -0.3979537
   0.0030984   0.9076745  -0.9123627  -0.1137996  -0.0136874   0.3468247
   0.7989263   0.1745310  -0.3999105   0.7458247  -0.4546570   0.0189035
   0.1126391   0.1838645  -0.0798812   2.0751505   0.4839689  -0.5660995
  -0.1945696   0.9144897   0.5076916   0.0935410   0.3907548  -0.1792687
  -1.2601233  -0.0964630  -0.3407182  -0.5607980   0.3667978  -0.8743447
   0.1727592  -0.2557978   0.0275844  -0.2632127  -0.1088093  -0.6329912
   0.7649604  -0.4131711  -0.5992574  -0.0891402   0.0970963   0.1013569
   0.6121027  -0.3848294   1.7207269  -0.1270800  -1.2373035  -0.7411193
  -0.4852973  -0.5258436   0.0147685  -0.8269090  -0.1425654   1.1149885
   0.9325346   0.5405607  -1.8221967  -0.1663053  -0.2678956   0.2041793
  -0.6722687  -1.0599279   0.0999907  -0.0706076   0.2286200  -0.6907502
   0.2535117   0.0485118  -0.0394991   0.3545583  -0.1838232   0.3405948
  -0.6348899  -0.3180256   0.2899539  -0.2654912  -0.3047899  -0.1877805
  -0.0920803  -0.2082570  -1.6649006  -1.0204697   1.6934769   1.2400585
  -0.1479905   0.1675698   0.0496460   0.8042565   0.6455703   0.8582620
   0.9754788   0.6670421   0.5312981  -0.1544791   0.1748469  -0.2222498
   0.1521737  -0.7592567   0.2188479   0.0563679  -0.4165533   0.3700412
   0.1125431   0.0668600   0.2097335   1.5218320  -0.3763125   1.7305808
   0.9692763  -0.8648550  -1.8805494  -0.0523486   0.1399955  -0.1661825
   0.1897222  -0.2275246  -0.2865262  -0.8831616   0.7189342   0.4719712
  -0.3479723  -0.0457269  -0.3154063   0.4118289   0.2882664   0.8512285
  -0.1966304  -0.7972707  -0.3312875   0.0498189   0.0887408  -0.3772077
  -1.1102054   0.4676559  -0.1031514   0.6060316   0.7162631   0.3322066
   0.1511207  -0.1358226  -0.0819430  -0.1467520  -0.1940899  -0.0759983
  -0.5267664   0.0646406   0.8463596   0.1399568   0.2659026  -0.0089707
   0.6037828   0.7945117  -0.3423746   0.1537758  -0.2890198   0.2202489
   0.0786299  -0.1075452   0.0550335  -1.2024807   0.4130313  -0.6407865
  -0.3353238   0.6436478   0.3976627   0.1513009  -0.1674187   0.0849699
   0.1926066   0.1037210   0.3478394   0.6501193  -0.2796266  -0.1867021
  -0.2097586   0.1412690  -0.0056156  -1.1728681  -1.5042186   0.4767369
  -0.3685069   0.7740412  -0.6742129  -0.0483125   0.2346828   0.2347169
  -0.6587055   1.8304169  -0.4982574  -0.0953359   0.7707871   0.5031903
  -0.3982823  -0.1410898   0.0526273   0.1720331  -0.0715663  -0.4903110
   0.0475831  -1.3691852   0.3384615  -0.0532960  -0.1109762   0.1069265
  -0.0525104  -0.2703191  -0.5991332   0.6927866   0.8079403   0.5080049
  -0.0885903  -0.1273528   0.0862680  -0.1168765  -0.0678048  -0.1437343
   1.0262113  -0.5192928  -0.4870483  -0.1205084  -0.3091912   0.4151342
  -0.1665481  -0.1823180  -0.1698252  -0.7896826  -0.0888193   0.2870983
  -0.2635587  -0.0345313   0.2807672   0.2567267  -0.5483070  -1.5712840
   0.8414612  -0.3663721  -0.0741620   0.1309054  -0.0333287  -0.0391339
   0.0934834  -0.1481829  -0.0448760  -0.6078165  -1.5113012  -0.0608218
  -0.0794404  -0.0499223  -0.0595614   0.3171910  -0.5751361  -0.6709254
   1.0629132  -0.2063889   0.8654805   0.0721331  -0.3412644  -0.1246586
  -0.4139866   0.4010014   0.4247272  -0.7164050   0.5938889  -0.0294237
  -0.1719961   0.0184967   0.0606866   1.6465188   0.0024888   0.3425753
  -1.1198301   0.5890490   0.4637006  -0.1697504  -0.0430201  -0.1259600
  -0.5303641   0.1245783   1.3853118   0.0893428   0.2335379   0.3106880
   0.0369576   0.0132957   0.0154386   0.8518789  -0.5904738  -0.4537322
   0.7845283   0.2655907  -0.2462771  -0.2705125  -0.0333921   0.2294002
   0.3919690   0.7956882  -1.1409020  -0.1142792  -1.2035223   0.1399255
  -0.1187720   0.1692617   0.0435274  -0.1440118  -0.4863136  -0.0780394
  -0.4453729   1.4110225   0.1060191   0.2889920  -0.4246156   0.0799837
  -1.3484661  -0.9488094   1.2362870  -0.6339852  -0.4561582  -0.1567695
   0.0116777   0.2432276  -0.2230272   0.9094384   0.3595475  -0.2950545
  -0.4653130  -0.9438985  -0.1962681   0.0336822   0.2749479  -0.0100841
   1.1299122   0.7267819   0.5500346  -1.6409956   1.4847612   0.7181183
   0.1160396   0.1595192   0.1058672   1.4832818   0.3276287  -0.4274423
   1.7479100  -1.4685939  -0.4524241   0.1329366   0.2623386   0.0162246
  -1.6926303  -0.3683561  -0.1823705   0.6326153  -0.2090925  -0.3180370
   0.0219282  -0.0764205  -0.1731224   1.1455953  -0.4900757   0.6599289
   0.8076679   0.5801230  -1.3728094   0.0927444   0.1802160   0.1000888
  -0.7896608  -1.3938103   0.0349985  -0.0987629  -0.1351004   0.3752011
  -0.1859977  -0.0946869   0.0488233   1.6912294   0.7851691  -0.0264589
   0.3598908  -0.7357432  -0.2972620  -0.3390195  -0.1701138   0.1261497
   0.8899932  -1.0135124   1.0986700  -1.1118971   0.7328830  -0.5363054
   0.1432122  -0.2689975   0.0354417  -0.1126735  -0.3944829   0.5101309
  -0.5495908   0.3076851   0.4532588  -0.1913569  -0.0761739   0.2300551
  -0.8386331   0.5976607   0.0365051   0.6151388   0.2599914  -1.4444342
   0.2561988  -0.0694920   0.3083111   0.2565082   0.7725038  -0.9801618
  -0.9366519   0.1215277  -0.0249089  -0.0697129   0.1581466   0.1877516
   0.0711618   0.0102692   0.1965575   0.5586444   0.7200232   0.5692955
  -0.1403051  -0.1385371   0.1481602  -0.4441185   0.1069657  -0.9486331
  -1.0769735   0.9182857   0.8339014  -0.2304838  -0.3057653  -0.1772853
  -1.2470791   0.6084231  -0.4607722   0.9694085   0.5908871  -0.5258062
  -0.0152540   0.1707336   0.0086966  -1.5361411  -0.3494325   0.4901381
  -0.2582561  -0.5558348  -0.2968720   0.0399921   0.1084689   0.2367834
   0.5834697  -0.0197484   0.6311689   0.4102509   0.0718769  -1.0261747
   0.3265384   0.1316813   0.0525266   0.6866688   0.4048565   0.4995810
   0.4370471   0.7550151   0.1008613  -0.0101780   0.0029972  -0.0124252
   0.3310247   1.6263197   0.3193536  -0.0278784   0.6778238   0.8320658
  -0.0073802   0.1313994  -0.1615002   0.8521585  -0.1597550   0.4374660
  -0.5668224  -0.5937818   1.5146220   0.0177682   0.2834873   0.0993383
   1.6510050   0.0799825   1.1734450  -0.9443755  -0.8257871   0.0178546
   0.0665968   0.0205709  -0.1269759  -0.5037802  -0.1665769   0.8854447
   0.2914734   0.1891918   0.3232537  -0.1743650   0.1060726   0.2142954
  -0.2011302  -0.5126275  -0.2547219  -0.3068159  -0.1848277  -1.3288211
   0.0535811  -0.1757751  -0.0153852   0.8775712   0.3423656   0.5951209
  -0.3241741  -0.1132505   0.6235326   0.0348798   0.2095153  -0.4304759
  -1.1260923  -0.8432790  -1.3323265   1.3883323   1.5491111   0.7292063
  -0.0795193   0.0795971   0.0829316  -0.7870646  -0.1807384  -0.4174487
   1.0461962  -1.0817497  -2.3933164  -0.2462876   0.1456079   0.1456484
  -0.2308739   0.8254857   0.3455353  -0.4053256  -0.4605554  -0.5437635
   0.2001843   0.2437497  -0.0017118   0.4358726   0.8767946  -0.6763432
  -0.2915511  -1.1365467   0.3036963  -0.1645194  -0.0559728  -0.1371311
  -0.8140729  -0.3381230  -0.5128008  -0.2323016   0.3474703   0.9159698
   0.2394251  -0.0377099   0.0359313  -0.0225990  -0.3456971  -1.5814313
  -0.0522386  -0.3436113  -0.7905809   0.2552907  -0.0040400  -0.0825735
  -0.2019922   0.6440240  -0.8743194  -0.1409201  -0.8213622   0.2066619
  -0.0739505   0.4962192  -0.1502568   0.2211502  -0.4473543  -0.0974969
  -0.1899086  -0.9298070   0.5099306   0.2462320   0.1047041  -0.1137523
   0.4850751  -1.2814844  -0.8822494  -0.1199998   1.0052158   0.1724207
  -0.0058268  -0.1920993   0.0135506   0.2683883  -0.9734610   0.0814571
  -0.0164150  -0.1554175   0.1852682  -0.0101634  -0.2731137  -0.0649885
  -0.3948715   0.6582440  -0.9478815   0.3993888  -0.3337288   0.4617344
   0.2534906  -0.0915223   0.1271774   0.2468684  -0.3646703   0.1296372
   0.3326119   0.0875583  -0.2568985   0.0018787  -0.4218527  -0.3548712
   0.2308653  -0.3747622  -0.1369240  -1.1805456  -0.2700890   0.1551713
   0.1053447  -0.1086731   0.1004834  -0.7411282  -0.3570501  -1.3263933
  -0.3781577   1.2450101  -0.3749482  -0.0342937  -0.0634542   0.0043672
   0.1229188   0.1930133   0.9004192  -0.1467791   0.6976575   0.2042240
  -0.0922097  -0.2146292   0.2352706  -1.1499284  -0.0089681   0.5204221
   0.3931432   0.0666509   0.3018738  -0.1483484   0.0152354  -0.1577336
  -0.5858613  -0.2713734   0.8300318  -0.9582989  -1.0301744   0.8020267
  -0.3018516   0.1086722   0.0643946  -1.4717562  -0.6765733  -0.5696135
   0.1112953  -1.4126221   0.1160444   0.1337577  -0.0026864  -0.2584694
   1.3775967   0.2493844   0.4472046   2.4104299   0.6803240   1.1473244
   0.2748702   0.0171314   0.1250513  -0.2528893  -0.5972786  -0.0961942
   0.3287120  -0.3139337  -1.0231711  -0.3776810  -0.0166466  -0.2127779
   0.7133245  -0.1693486   0.4330610   1.2384625   0.5848895  -0.2363258
  -0.0779493   0.3760585  -0.3070705   1.2347861   0.7527860  -0.2349957
   1.5022294   0.5469365   1.2512507   0.0436536  -0.0770441   0.1641657
  -0.3604353   0.4249650   0.5129586  -0.0456656  -0.1188999   0.3028311
   0.0856920   0.1358984  -0.2172019  -0.7689487  -0.4199448   0.0472279
  -0.2233467  -0.7517105  -0.5581869  -0.0206404  -0.1838617   0.2232890
  -1.0430353  -0.2463523  -0.0354302  -0.4067990   0.0116364  -0.9791452
   0.1799793  -0.1693320  -0.0647781  -1.4121983  -0.3903755  -0.7153545
   1.8460868   0.0269218   0.2905821   0.0478270   0.1272533  -0.0533710
   0.4496197   1.4125523   0.0702482   0.5550340   0.3286345   0.5559248
   0.0531969  -0.3881147  -0.1975634   0.8072682  -0.1069459  -0.5281183
  -0.4573943  -0.6214372  -1.1990916   0.2994004   0.0700443   0.3621113
  -0.2024333   1.1551950   0.5275768  -1.2123675   0.5487219   0.3803602
  -0.1462983   0.1784584  -0.0444846   0.2370294  -0.8603979   0.1514865
   0.0092431  -0.1285489   0.4812732   0.3057348  -0.0812072   0.1828627
  -0.7244961   0.4993489  -0.4373826  -0.7059645  -0.0481381  -0.3232738
   0.0613337   0.0920925   0.1280727   0.0051235   0.2085514   1.4271088
   1.1099092   0.2099709  -1.5294352  -0.3251275  -0.2215195   0.3797086
   0.7417874  -1.3186980  -0.0306599   0.9220639  -0.0267679   0.6464265
   0.3525323  -0.0279348   0.0274277   0.0651959   0.2866647   1.9519430
  -0.0137401   0.1327726  -0.6067425   0.3683647   0.3501687  -0.0835535
   0.7380185  -0.9881383   0.7518749   0.0775491   0.4484956   0.0739634
   0.0398239  -0.3369689   0.2501359   0.3937763   0.1535873  -0.2869104
  -1.6786069  -0.7412953  -0.2992364   0.0333698   0.1527618  -0.1136144
  -0.0758296   0.1929446   1.5905258  -0.3002967  -0.3185562  -0.7332428
  -0.2841082   0.1310730   0.2356544  -0.0065543   1.2466930   0.5063449
  -0.2585112  -0.5397432   0.8862709  -0.1146940   0.2086664   0.1764973
  -0.5365194  -0.1147687   0.3199364  -0.5946380  -0.4566284  -0.5548157
   0.0715378  -0.2095568  -0.1312558  -0.1540499  -0.0403542   0.4340503
   0.1040112   0.9777993   0.3329899  -0.1836171   0.0560645   0.0718600
  -0.1004713   0.0716684   0.8980006  -0.5735612  -0.5982312   0.6175934
  -0.0351214   0.1780954   0.0622240   0.9171209  -0.6821373   0.0549087
  -0.7282007  -0.3502742  -0.2401527   0.0849480  -0.1198312  -0.1950585
  -0.5728720  -1.2977122  -0.6826693  -0.9610875   0.5434017   1.0000816
  -0.0740661   0.2590235   0.2385139  -0.2112184  -0.0699003  -0.0298161
  -1.3190124   0.2961042  -0.3398915   0.2022538   0.0144297   0.0857768
  -0.4221461  -0.2748549   0.6661114  -0.8788674   0.6032857  -0.0574851
   0.4464876  -0.1657587  -0.0590569  -0.3641084   0.4734566  -0.2926446
  -1.0814403  -0.3117113   0.6683719   0.2396481   0.1696180  -0.3343131
   1.4929876  -1.7715073  -0.6392373   0.4095908   1.1257808   0.2293618
   0.2941811  -0.1941618   0.0418110  -0.4044783  -0.8169306   0.0900418
   0.1271226  -0.6803530   0.4003627   0.0522976  -0.2832122   0.1405358
  -0.7427902  -0.2158691  -0.7482483  -0.7789362  -1.4439040   0.7347902
  -0.0878925   0.1421184   0.1333222   0.0052180  -0.7891513   0.5017342
   0.1190919   0.2182316  -0.4505714  -0.1181586   0.2749145  -0.3963233
  -0.0594687   0.5893472   0.4063154   0.1141161   1.2196573  -0.1451255
  -0.1755295  -0.2637301   0.1187023  -0.5148373  -0.4323431   0.4860223
  -1.2530315   0.2853332  -0.1838090  -0.2240610   0.2719391  -0.0968050
   0.8683166  -1.0195028   1.0057805   0.9289630  -0.0154169  -0.0967952
  -0.3101342   0.0315691  -0.2163532   0.4749848   0.4477135   0.5683064
   0.3942199   0.5524240   0.3403146  -0.1351913  -0.0861317  -0.0068859
  -0.1323176   0.4842689   0.0069833  -1.2510029   0.9177939  -1.3553919
  -0.3630080  -0.0072949  -0.0688219  -0.1789834  -0.1919184   0.4544548
   0.1848251  -0.4640513   0.7035920   0.1854893   0.0631405  -0.0025931
   0.5181323  -0.4254117  -0.0111925   1.2990063  -0.6108042  -0.0009442
  -0.3340630  -0.2711833  -0.0575980   0.1400442  -0.0551341   0.2464364
   0.4716748   0.5764348   0.7309821  -0.1682100  -0.3968426   0.1949051
  -0.0011575  -0.4900408  -0.3283364  -0.9357453  -0.2140732  -1.6009022
  -0.3587837  -0.0921887  -0.1012203   1.0439895  -0.6003417   0.4777050
  -1.1301551   0.1006813   0.4815146  -0.3712841  -0.0497963  -0.0042222
  -0.6244514   0.0923416  -0.7978987   0.9082143   0.1422943   1.0122200
   0.0534679  -0.2354176  -0.0189815  -0.9597240  -0.0588605  -0.4709470
  -0.0096002   0.2819718   0.5358044  -0.1721807  -0.4108453   0.3091878
   0.7247812   0.9135117  -0.0746159   0.6549363   0.6623055  -0.0347593
  -0.1469008   0.0954560  -0.2261275   0.1272361  -0.1899323  -0.5793266
  -0.5392939  -0.0577165   2.0389350  -0.2620391   0.1317031   0.1362738
  -0.0616011  -0.0873489  -0.9917296  -0.8171293   0.1878109  -0.3898871
  -0.1119951  -0.0653498   0.2614394  -0.5884031  -0.6803053  -0.5609715
   0.9908626   0.0112546   0.9999867  -0.0221838  -0.2200185   0.0000632
   0.5950652  -0.3727069   0.7074046  -0.9544987   0.5686038  -0.4396222
   0.1904792   0.0569045   0.0936773   0.0791763  -0.2430667   0.9758438
  -0.4751462   0.2675324  -0.2187623  -0.2845632  -0.3480887   0.1773256
   0.4447028   0.6314539  -0.8044250   1.1493020  -0.1875065  -0.5430023
   0.0627786   0.2118577  -0.0957872   0.4050340   0.1031928  -0.4866536
  -0.2045884   0.9238657   0.1737633   0.0627886  -0.0052684   0.1796088
   0.7738041  -0.2212001  -0.8653904   0.2899947   0.0406569   1.2838152
   0.1675855  -0.1898943   0.0932258  -0.4367704  -1.2502283   0.1318946
   0.0893731  -0.0340066  -0.6654978  -0.0621251  -0.1771213   0.2735789
   0.0650270  -0.3682820   1.4921668   0.0774661  -0.2521380   0.1517463
  -0.1349389   0.2575763   0.0119892  -0.9097283  -0.6611937   0.7478162
  -0.0980916   0.4484789   0.5694705  -0.2797155  -0.3274754   0.0635793
  -0.0628357  -0.0325874   0.0483220  -0.7617943  -0.4202873  -1.0503402
   0.0921244  -0.2266657   0.1762534   0.6639989   0.8564627   0.0693067
  -1.0142426  -0.5241639  -1.4993195   0.3185218   0.2611050   0.0271672
  -0.7979656   0.3754717   0.3658056   1.1812734  -0.2047839  -1.7379062
  -0.0802260   0.0859107  -0.0645328  -0.1102708   0.0383702  -0.0647647
  -0.9501111   0.3729523  -0.4558722  -0.1515365   0.2425468  -0.0874124
  -1.8044150  -0.7912013  -0.3502299   0.9882739   0.8962460  -0.2288315
  -0.4060678   0.1555357   0.0141935   0.3021399  -0.2615739   0.2949557
   1.2676592   0.3788089   0.0433533  -0.1359781   0.1463117  -0.1735959
   0.5262551  -0.8352615   0.7082906   0.6538530   0.6258323   0.4263861
   0.0926361   0.3280526  -0.1693544   0.2492012  -1.1784675  -0.7899196
   0.3686529  -0.6043239  -1.0836645   0.2482745  -0.1619861   0.0405884
  -0.0913337   1.3005580  -0.4251322  -0.4555686   0.3856984  -1.0436816
  -0.0040959   0.1094816   0.1096785   1.1809805  -0.2213280   0.6574529
   0.1749105   0.6770099  -0.6634750  -0.0677015  -0.4138971   0.0181560
  -1.5549921  -0.2732303  -0.3997419  -0.6202710   0.5400080  -0.1821077
  -0.1686760   0.3331424  -0.1707742  -0.6422702   0.6368182   0.3901964
   1.2293795   0.8338380   0.2918798   0.0002703  -0.2040772  -0.2745404
   1.2504393  -1.2050065   0.2820550   0.9012148  -0.3964292  -1.1930365
  -0.0789609   0.1557761  -0.2237436  -0.1043532   1.3079337  -0.6281312
  -1.5778614  -0.2698232  -0.8883861  -0.0869563  -0.3738893   0.0403948
  -0.0616679  -0.8874288  -0.5116502  -1.1318198   0.7206617  -0.6445705
   0.1541107   0.2022768   0.3443311   0.0055180   0.7424783   1.7942906
  -0.7761587  -0.0342509   0.3666272   0.2087292  -0.2119777  -0.2060661
  -0.2460154   1.0397814  -0.8014900   0.6061037  -1.9491203   0.4962936
  -0.1185042   0.1157984  -0.0911780   0.0854484   1.6008531   0.5666957
  -0.1112564   0.5391314   0.0168440   0.2179915  -0.0306442  -0.0808475
   0.6515071   0.9984655  -0.3621190  -0.0145131   0.1220395   0.4307939
  -0.2038457  -0.1423232   0.0376236  -0.6913247   0.3982425  -1.2560350
   0.2103950   0.7621809  -0.0761952  -0.0136215  -0.1548831  -0.1043155
   0.1639467  -0.0434246   0.6446361   0.1155221  -0.0371944  -0.4676025
  -0.2063154   0.2580959   0.0031681  -0.1914941   0.3923788   0.6317268
  -1.3577087  -0.3637719  -0.8263225  -0.2254676  -0.1776637  -0.1224319
   0.0618766   0.1434881  -0.8747419   0.0202359  -0.0274562  -0.3458105
  -0.1465291   0.2804633  -0.0436212   0.4502965   1.7216118  -1.0676863
   0.0435041  -0.3356119  -0.1305949   0.2228068   0.4073430  -0.0590619
   0.2732203  -0.0910951   0.1349643  -0.5463361   0.7057349   0.8838996
  -0.0513288  -0.2127375   0.0586133  -0.6109307  -0.3709030  -0.2952500
   1.1092863   0.2781547  -0.3440116   0.0372114  -0.1300976  -0.1552088
   0.2296063  -0.9611750  -0.6576659  -0.1821852  -1.1358182  -0.5595710
   0.3017696   0.0630018  -0.0766073   0.2231296  -0.0963656  -0.4240438
   0.1832172   0.1283925   0.6136381   0.1481115   0.1309984  -0.2589179
  -0.3979120  -0.3408995  -1.0023914   0.2140141  -0.4112065   0.2583750
  -0.3232974   0.1329878  -0.2923515  -0.1821087  -0.1458321  -1.4843322
   0.7807005   0.0160663   0.2623314   0.0019010  -0.3382927   0.0941450
  -1.7536395  -0.6863876   0.4926382  -0.2553627   0.4428458  -0.5799629
   0.1815840   0.0905439  -0.1467732   0.9224158   1.6885518   0.4448567
  -1.1674937   0.0679254  -0.3932561   0.0287344   0.1824968  -0.2619081
   0.0451188   0.1150748   1.1241113   1.6442098  -0.4556584   0.2212681
  -0.2019134   0.2819233  -0.2328457  -0.2511705  -0.4215088   0.3834834
   1.2777943   0.1409736   0.2843978  -0.1402404   0.3263047  -0.2336035
   1.4348513   0.4410950   0.5699035   0.9645404   1.8781182  -1.2650545
  -0.1171171   0.0124858   0.0895150  -1.2586794  -0.1822647  -1.1439197
  -0.0858605   0.4867941  -0.7631371  -0.2517723   0.0454777   0.1771400
  -0.1398546  -0.6108208  -1.0864962   0.9076961  -0.7808838  -1.1484939
  -0.1596656   0.0875931  -0.1670344   0.6687139   0.5185682   0.2331161
   0.3875356   0.7631377   1.6076987   0.0802289  -0.3269519  -0.0394020
   0.1537502   1.0555073   0.0642796   0.2344462   0.9279235  -0.9792701
  -0.2000615   0.1557545  -0.0060564  -0.2299174  -0.4787504   0.9968803
  -0.2798021  -0.6583331  -0.0624834   0.0076378   0.0199371  -0.2134745
   1.3969873  -1.1047163  -0.0923335   1.3464675   1.7314393  -0.2189092
  -0.2268972  -0.2032589   0.1662596  -0.9464940  -0.8403153  -0.2677648
   0.5514708   0.3108984   0.1787130  -0.0832600  -0.0709749   0.1002074
   0.8046385  -0.6916461  -0.1995628  -0.7737473  -0.6589963   0.8493614
   0.3308215  -0.1901495  -0.2770190  -0.0931858   0.9972831   0.6503695
   0.6959116  -1.1688826  -0.1220974   0.3139553   0.3160440  -0.2582530
   0.5605227   1.4531970  -0.6742308  -0.4160281  -0.3067391   0.6885316
  -0.0736364   0.1977803   0.0203983  -0.2215359  -0.2448185  -1.8205656
  -0.3877516   0.9581000  -0.0295654   0.3256567  -0.0610051  -0.0134325
   0.0457012   0.4613376  -0.6636326  -1.3793992  -1.3304036   0.0985389
   0.0629283  -0.2277383  -0.1103573  -1.0557774   0.1749976   0.8876700
  -0.3397850  -0.1963414   1.0236390  -0.2082027  -0.1261138   0.0086566
   0.9710255  -1.6380544   0.0469917   0.9726338   0.3435740   0.2834676
  -0.0412338   0.0415506  -0.2912875  -0.0726740   0.5131499  -1.3119225
  -0.1725889   0.4272610  -0.7565514  -0.2924213   0.1411790  -0.2326860
  -0.0946028   0.4130942   0.3578892  -0.2150470   0.7898120   0.7249802
   0.0788614  -0.0071008  -0.2284121   1.2146630   0.0258044   0.4259784
   0.0940921  -1.6208442   0.3682895   0.1507051  -0.2661402   0.0814823
   0.9174761   0.2759328  -0.2889678  -0.4134309   0.2106657   0.1534991
   0.1483171  -0.0466399   0.1327276  -0.3784561  -0.1185836   0.6507085
  -0.1384877   0.2173889   1.2004118  -0.0930865  -0.1292707  -0.0736352
   0.7998927  -1.0344535  -1.6149380   0.0669990  -0.0762022  -0.3039037
  -0.0315584   0.1322199  -0.2705244   0.3033508   0.3458825   0.2684129
   0.0353813  -0.4651447   0.8339384  -0.1207684  -0.1090460  -0.0218136
  -0.3388353   0.6200570   0.6370513   0.4589574   0.2683819  -0.7279689
   0.0830899  -0.3747990   0.1013913   0.1767706   0.3171014   0.0472987
   0.9848108   0.6189863  -0.7954248   0.0870652  -0.1971629  -0.2391345
   0.0809180  -0.6952795  -0.5986743   0.8696590  -0.8627214  -0.2302295
  -0.0078110   0.1077410  -0.0085486   1.0403162  -0.4668060   0.0228509
   0.3881126   1.3938329   0.2445720   0.1202961  -0.1107651   0.2773636
   0.4033499   0.2049858   1.3834943   0.5479575  -1.3893216  -1.5508096
  -0.0640741  -0.0926073  -0.1910599  -0.9510753  -0.2608442   0.5058104
  -0.0921397   0.7096492  -0.7782158  -0.4184073  -0.2346609  -0.3671386
   0.3634758   1.0187586   0.4269096  -0.0769441   0.0597814  -0.3685418
  -0.0276851   0.5039083   0.0305113  -1.0104568   1.1575052   0.2707270
   0.5001775  -1.0783236  -0.0296157   0.2073943  -0.2261264   0.3883180
  -1.0806640   1.3621883  -0.2998895  -0.7412862   0.4210935  -1.0278718
  -0.3241457  -0.2968607  -0.1465788  -0.2955604   0.0085297   2.0293168
  -0.0639863  -1.4144451   0.1156336   0.4319960  -0.2700982   0.0194625
   0.7768428   0.3279615  -0.0819371  -0.7688928   0.0521639   0.9255484
  -0.1289531   0.2101925  -0.0753850  -0.2517390  -0.2864421   0.8295573
  -1.4605152  -0.2073986  -0.2268184  -0.0332837   0.1626404   0.0563278
  -0.8840251   0.5165157   0.8539705  -0.9766606   0.5751858  -1.5119135
  -0.0219277   0.0699461  -0.3127522  -0.5996856  -0.8708359   0.2851079
   1.3303312  -0.0054269  -1.1301523  -0.3418614  -0.2221840   0.0592724
  -0.1217846   0.3391812   0.8010775  -2.0794827   0.1579400   0.2976316
   0.3405358  -0.3092383  -0.1500382  -0.0240171  -0.3974260   0.3229030
  -1.1415435   0.2206717   0.7790313   0.1338260  -0.1185572  -0.0287822
   0.5345993   0.7714928   0.6504323  -0.8478407   0.4077963  -0.1207355
   0.1496465  -0.0183664   0.0732210   0.0372891  -1.2801504  -0.2212275
  -0.8178396   1.2338000   0.2599356  -0.0021479  -0.1353739  -0.1748980
  -0.6315352  -0.7905645  -0.0672102  -0.4496873  -0.0751120  -0.1436176
  -0.0206766   0.0519539   0.0816438   0.7610405   0.3515585  -0.9819801
  -0.1486159  -0.5049727   0.6720547  -0.0552021   0.2811583   0.0843779
   0.3298423   1.2197012  -0.3368015  -0.2979383  -0.8539362   1.2783619
  -0.0566410   0.1462101   0.0036070   0.0551504   1.1322909   0.0784991
  -0.0579381   0.9439804  -1.1858843  -0.0366237   0.0611110   0.2569613
  -0.4807811  -0.1866915  -0.5422495  -0.7256871  -0.0651727   0.4216318
   0.2778000  -0.2381909   0.1247771  -0.0966935  -0.2278179   0.3026058
   0.9336094  -0.5581906  -0.3685779  -0.0298899   0.1206242  -0.2266739
   0.6595838  -0.6925117   1.0595877  -0.5737716  -0.4900831   0.8104581
   0.2636023   0.1611131  -0.3572206  -0.3617954   0.4647997   1.9925761
   0.7852122  -0.3012545  -0.0933449  -0.2006769   0.2086516   0.4003732
  -0.4834643   0.0608423   0.7874914   0.7996431  -0.1302659  -0.8809741
  -0.0943311   0.0025667   0.2526100  -1.3888994   0.5999756   1.2228378
   1.0237105  -0.7748681   0.5174951   0.1001090  -0.1812678   0.3284958
   0.7236295  -0.3252633  -0.2007001  -0.1311288   0.1489311  -0.1564878
   0.1050312   0.2203020   0.2142775  -0.9830554  -0.2782127  -0.2361240
  -0.9631633   1.6592690   0.8907819  -0.0067685  -0.1788688   0.2848851
  -0.8501225   0.3004277   1.3956118  -0.2309557   0.1162799   0.2141864
  -0.1931850   0.0701923  -0.0085256   0.0630007  -0.0152774  -0.1011146
  -0.3084482  -0.4771977   0.1773761  -0.2958433   0.0002965   0.2002922
  -0.1460464   0.8984488   0.7976562   1.1489616   0.2340304   0.1735988
   0.2450127   0.1905417   0.0021130   0.8991331   0.7573008  -0.7774902
   0.5304764   1.0355733   0.8314768   0.0019080   0.1366330   0.1118594
   0.9954804  -0.4424968  -0.1586371  -0.4999598  -0.5481264   1.1116010
   0.1962185   0.5395795   0.1529319  -0.0089301  -0.2840808   0.0017726
   1.2742255  -0.3503560  -0.1941032   0.1313180  -0.1679754  -0.1210025
  -1.3135399  -1.0966735  -0.9169228  -0.2763866  -1.1310561   0.4494841
   0.2244862  -0.0351281   0.0832120   1.2354369   0.2026749  -0.8815702
  -0.0719116  -0.4914387  -0.1283365  -0.0448446   0.0370837  -0.0621091
  -0.4528863   1.9004501   0.1224119  -0.9258048   0.0544729  -0.3844320
   0.0087684   0.3884403  -0.2241978  -1.1361125   0.4392747   0.4006010
   0.0096806   0.8083205   0.0122465   0.0775810   0.2102380  -0.0926436
   1.1903877   2.2437487   1.3794150   0.0514501   0.9529608   0.3523422
  -0.0855876  -0.1232816  -0.1570319  -0.7834489  -0.7661375   0.7671937
  -0.2824179   0.9654618   0.1014006   0.4427273   0.1334094   0.2518940
  -0.7244613  -0.2188802   0.3715868   0.2441906   0.4187709   0.0668714
   0.4429552   0.1133577  -0.1556290   0.9430886   0.6893222   0.1532938
  -0.4374232  -0.3643260   1.0298302   0.4352513   0.1726538   0.2675596
  -0.5512441   1.7200190  -0.0847291  -0.5284651  -0.9615119  -0.0340867
  -0.1788556   0.3612821  -0.3347484   0.2751341   0.1503149   0.2878407
  -1.2098400  -0.1635701  -0.9715723  -0.1742644   0.1268396   0.1441453
  -0.5131375  -0.3949212   0.7225783   1.4555212  -0.5848524   1.3320925
   0.3623748  -0.0184213   0.0390660   0.8567490   0.3775807  -1.1854897
   1.0957184   0.2591616  -1.4495704   0.4090414  -0.5164581   0.0004283
  -0.3619562   0.2229661  -1.1876345  -0.1322610  -0.1632135  -1.3185032
   0.0129780  -0.1030102   0.2204731  -0.1439296  -0.4941813  -1.1039774
  -0.4909969   0.2979186   1.1185329  -0.1637812  -0.2492719   0.2925453
   0.4818125   1.4517527   0.0983683   0.3794841  -0.4424974   0.9754791
   0.2182674  -0.4310912  -0.1886097   0.0687919   0.6436627   0.8058067
   0.6276653  -0.6116488  -0.6565644  -0.0530915  -0.1132319  -0.1513316
  -0.0778493   0.9076558  -0.8414788  -0.0394744   0.2619885  -0.5578091
  -0.1332840  -0.0761875  -0.2495627  -0.3512793   0.0588044  -0.6754389
  -0.0024211  -1.3876278  -0.5298691  -0.0547158  -0.3295106  -0.2128652
   0.5275060   0.1613182   0.3072935   0.9591917  -0.7899910   1.3413616
  -0.1494292   0.2724735   0.1045031  -2.0952836  -0.8489699   0.9545543
  -0.1441891   0.6284147  -0.2281896  -0.1702671  -0.1257177   0.0213974
   0.2120824  -1.1974634   1.6634243   0.7863756  -0.9050712   0.2246649
   0.0011551   0.5325959   0.0212271   0.4424976   0.2350609   0.3296410
  -0.0586953  -0.8992176   1.1657007  -0.0702774  -0.0862081   0.4595584
   2.0581566  -1.2859391   0.4370550   1.2126128   0.4458356  -2.3297027
  -0.0471342   0.3334967   0.1531300   0.4388263   1.2440062   0.9429127
   0.3583798  -0.7839123   0.3872971   0.0440426  -0.1031588  -0.0236117
   0.4460356  -0.8372615  -0.2424282  -0.6370630  -1.2475792   0.2842261
  -0.1391130   0.0176977   0.0599101  -0.0705684  -1.2356883   0.0396180
  -0.0660751   0.0624872   0.1206228  -0.1716773   0.1482615  -0.0875150
   0.2572783   1.5996437  -0.5632632  -1.0909523   0.7931870  -0.9952111
   0.3610581   0.2944650  -0.0110425  -0.3249975   0.6687892   0.7570543
   1.2240657  -0.7024909  -1.6207197   0.0689074  -0.2609907   0.0079230
  -0.0157353   0.0054150   0.3577149   0.3487948   0.0236073   1.5858903
   0.1167709  -0.2688016   0.0687092   0.4218936  -0.9689965  -1.2668427
  -0.7531945   0.3695253  -0.0957517   0.0961949  -0.4787270  -0.0496217
  -1.1984647   0.4526381   0.3074403  -0.2358530  -0.4406506  -1.1041054
   0.3296960  -0.0795117  -0.4051430  -0.0274278   0.2736128  -0.2389750
  -0.2039950   1.4031953   2.1341722  -0.3161624  -0.0211751  -0.2867033
  -0.8373957   0.1491368  -1.0140634   0.2639308  -1.0412079  -1.0966632
   0.1164524   0.2309115   0.0341272   0.4674592   0.0184707  -1.0199522
  -0.6035130   0.1578756  -1.1114995   0.3370813   0.0705300  -0.2183581
   0.1285893   1.4491771   0.5589449  -0.0662642  -0.9795971   0.7530138
   0.0885066   0.0935008   0.1335554   0.9551146  -0.2275377   0.7110533
   0.3980903   1.9968709   1.2142269  -0.0313435  -0.2282410  -0.0461060
   0.6109950  -1.2316969   0.6585299   1.2930534   0.1558901  -0.1194336
  -0.2780533  -0.0785633   0.2780218   0.5183335   0.0868856   1.3144472
  -1.3088092  -0.9760888  -0.9207722  -0.1072844   0.1172615  -0.1421365
   1.7524105   0.3384706   0.1543583  -0.8879321   0.2754895  -0.6884879
  -0.2909025   0.0680470   0.0828107  -0.0036353  -0.0961634   1.2567693
   0.9483749  -0.5134318  -0.3450835   0.3005445  -0.1072225   0.0578020
  -0.0831783   0.1132551  -0.9125635   0.7294134  -0.2261947  -0.3631983
  -0.2095979   0.1531421  -0.1887632  -1.1558074   0.6621505   0.5880197
  -0.3942073   1.4615096   0.1689099  -0.2897399  -0.0502794   0.0303980
   0.5259646  -1.6012471   1.1983294  -0.3194466   0.9504510  -0.8552980
   0.0542311   0.1303810  -0.0352806   0.1115806  -0.1343700   1.3181120
   0.9886264   1.0561059  -1.0502245   0.4386344   0.1839429  -0.2767352
   0.9971669  -0.6963604  -0.2278942   0.9702296   0.7048147  -0.9626720
  -0.1533504  -0.0951416  -0.1186700  -0.5273097  -0.6517085   0.1633656
  -0.3874979   0.8267119   0.9366765   0.2380064   0.0180282  -0.4198280
   0.9599674   0.4808668  -0.1247181   0.7491634   0.4823427  -0.5139006
  -0.2217164  -0.0165176   0.1313320  -0.2368416  -0.6254589   0.5969073
   1.1307306   0.7166281   0.3846432   0.0300514   0.2460847   0.1537319
  -0.0985802   0.3695337  -0.0833484   0.3215774   0.3905390   0.5229034
   0.0037901   0.0785679  -0.0688606  -0.1346147  -0.9314726  -0.3336153
  -0.6614681  -0.9585063   0.8118495  -0.0070159   0.1226800   0.0548971
   1.1564678   1.0017642   0.8879812  -1.1977395   0.5243328  -1.3724050
  -0.0138589   0.1091407  -0.2311955  -0.4914401   1.1967011  -0.0912440
   0.8270158  -1.1860458  -1.2211707   0.1970232  -0.0136733   0.5462811
   0.4701682   0.4252553   1.6784733   0.4757956   0.6715956   0.3336387
  -0.0034181   0.0978003   0.2931939  -0.2351872   0.8007744  -0.5749221
   1.7374695   0.0027991  -0.5797783  -0.0892764   0.0902946  -0.2098911
  -0.8625098  -0.9437854   0.8458163  -0.4866081   0.2634404  -0.2251321
   0.2253218  -0.1094839  -0.2127129   0.4187854   0.0824693  -0.1269866
  -0.3844484  -0.2822523  -0.8464804  -0.1514566  -0.0267376   0.0540954
  -0.3468467  -0.4687821   0.0799879   0.9857386  -1.0188514   0.5479869
  -0.1095466  -0.0193053   0.0848176   1.5498806  -0.6681529  -1.4092476
  -0.2110429   0.1023918  -0.4287226   0.0073154  -0.1290109  -0.0278812
   0.9672383  -0.1611276   0.2799477   0.3425309   0.3378385  -0.2181194
   0.2805012  -0.1821526   0.0418450   0.1971795  -0.5525432  -0.1264080
  -0.4556701   0.6715617  -0.6022572  -0.3038493  -0.1792533  -0.1757171
  -0.5309573  -0.3565192  -0.4443050   0.0033236  -0.7802200   1.4091025
   0.0344393  -0.0970192   0.1627467   0.2166766   0.1736939  -0.1539790
  -0.2587097   0.7635772   1.4872908   0.2905413   0.1164102   0.0901461
   0.2518322   0.6305852  -0.2810093  -1.5902066  -0.1679985   1.6709454
  -0.1518333  -0.3077858   0.1780677  -0.0856298  -0.1815781  -1.4647698
  -0.5111390   0.3270087  -0.4050797  -0.1383652   0.1013978  -0.3245747
  -0.2923819   1.0952065   0.0241600   0.0829075   0.0946565  -0.9263329
  -0.1105306   0.1917635  -0.0212290   0.9807853  -1.5034398   0.5875052
   0.3164100   1.1414697   0.5324071  -0.0913878   0.0790988  -0.1597087
  -0.2379987   0.2625389   0.0645055   0.1574534   0.4065226  -0.1965125
   0.1188286  -0.0223336   0.1629396   0.2019606  -0.1368857  -0.6857836
  -0.9348903   1.2091018   1.0811863  -0.0742218   0.1031742   0.0632694
   0.7793630   0.9787968   0.5009808   0.6262228   0.0900702  -0.5272093
   0.2167587  -0.0474483  -0.1439452   0.0823337  -0.5773522  -0.1784404
   1.1054094  -0.5198925   0.8540827  -0.0328240   0.2039964   0.1634880
   1.4245834   1.0762416   0.5796300   0.8006504  -0.1809904  -0.5259899
   0.3306483  -0.0986263  -0.1531595   0.4141019  -0.6740225  -0.1722118
  -0.5641345   1.1123963   0.7938029  -0.0889877   0.1349861   0.2221480
   0.8813807  -1.1384080  -1.5991665  -0.2027643  -0.1190267   0.1527829
  -0.2993055   0.1059248  -0.0311213   0.1526931   0.3592108  -0.8467966
  -0.4230018  -0.6647035   1.1788801  -0.1142853   0.2250965   0.3610055
   0.4114223  -1.2226114   2.8539895   0.0378277  -1.1873786   0.2714460
  -0.0227245   0.0893321  -0.2023379   1.7631776   0.0654469   0.9383469
  -1.0210545   0.5742953  -0.1811301   0.0359416  -0.0193411   0.2484347
  -1.8699539   1.5699383  -0.5897797   0.9963284  -1.1758357   0.8541894
   0.2738774   0.2641576   0.3240898   0.3606815  -0.0817372   1.3072635
  -1.6810981   0.0725332   1.2611833  -0.0035892  -0.0218082   0.4319068
   0.5120135  -1.1936578   1.2091879   0.3096685   0.1518596   0.4919467
  -0.3065748  -0.0509280   0.0311045   0.0944309   0.9152987  -1.2671998
   0.1236851   1.2281392   1.1791578   0.1435644   0.1028387   0.1871746
  -0.1576561  -0.6262180   0.6810442   0.0400523   2.0360217  -1.3826686
   0.0933290  -0.5161299  -0.0918110  -0.7090730  -1.1573303  -0.0843799
  -0.1135402   0.9729656  -0.2486993   0.1997456  -0.0622824   0.2517422
  -1.0196861  -0.4053596  -0.1698736  -0.5318505   0.0698450  -0.1458769
   0.1101236   0.1223487   0.2705795   0.6676033  -0.2321015   0.9612942
  -1.1635512   0.2279362  -0.3543993   0.1638986   0.0618138   0.2778997
   0.9851353   1.1087921   0.1878603  -0.5367759   1.1805623  -0.1733161
   0.0432235   0.2185747   0.0581431   0.4887976  -0.1292574   0.6918533
  -0.0035850  -0.1406574  -0.0764552   0.1862144   0.2067698  -0.1362391
  -0.3412072   0.5600855  -0.8487181   1.4223680   0.6440960  -0.9493532
  -0.1821116  -0.2124234   0.3916839  -0.7506317  -1.4188289  -0.2029406
   0.4912934   0.3390621  -0.2878183   0.2854363  -0.0834006   0.0832310
  -0.5288781  -0.2143970   0.6073124  -0.1064941   0.0125941   1.0129836
  -0.0649890  -0.0878880   0.1462429  -0.7734252   0.7228286  -1.1116011
  -0.2980376  -0.6840285  -0.3147470  -0.3622783   0.0586320   0.0897473
   0.9132719  -0.0617524   0.2552325   0.4443998   0.7803821   0.0485868
   0.1608737  -0.4379765   0.1200112   0.4796242  -0.3577026   0.2204627
  -0.5501825  -1.3781173   1.3313173   0.1192507   0.2182335  -0.4926045
   0.2311116   1.5601324  -0.4181401   0.7698816   1.3889419  -0.2814947
   0.1479163   0.1530920   0.3215821   0.4774623  -1.5378462  -1.2173126
   0.0671758   1.5151608  -0.0442015   0.3445523  -0.1897121   0.2081947
   0.2914805  -0.1897422   0.4459379   1.2518031  -0.8534818  -0.8062094
   0.0874383  -0.2337211   0.0331292  -1.0991982  -1.1547106   0.3757190
  -1.1501770   0.0612525   2.1347642   0.2434733   0.0923628   0.3864205
   0.1157319   0.4859822  -0.3859947   0.0397245   0.2926427  -1.1956151
  -0.1284972  -0.4096466  -0.0062444  -0.2805046   0.6597313  -1.4491437
  -1.3993212  -0.6053870  -0.2241074   0.0972808  -0.0736236   0.1555917
  -0.3923037   1.7475221  -0.5024481  -0.1071211  -0.2356561  -0.4453809
   0.0094866   0.0774190   0.1507769   0.2985525   0.1494354  -0.5921136
  -0.8589575  -0.0692748   0.3060268   0.2907538  -0.1762570   0.4714630
  -0.5126511  -0.9492934  -0.8033608  -0.8455703   0.0282221   0.1204869
  -0.1286963  -0.0177522  -0.0598824   0.8405171   1.0692915   0.3911481
   0.9928423  -0.1134940   0.3327389   0.0667721  -0.1556733  -0.1475466
   0.7657383   1.3370361  -0.9382025  -0.3646593  -0.5419294  -1.2634396
  -0.1743440  -0.0660823   0.0187474  -1.0017679   0.7400155  -0.0153334
   0.0066845  -0.8523887   0.3496454  -0.1870661  -0.2801044   0.0726146
  -0.1346705   0.1973438  -1.3252757   0.0542217   1.3062374  -1.3835550
   0.3539470   0.1037602   0.0410124   0.6523481  -0.6245527  -0.6996605
  -0.1148042   1.8175900  -0.9462541   0.0146543   0.0091639   0.2426181
  -1.1721354  -0.5758786  -0.0559342   0.0940623  -0.9017428  -0.0810351
  -0.1543071  -0.3586305  -0.1680177   0.7044704   0.6061923   0.3911214
   0.8807424   0.4573905   0.1342953   0.2723177   0.2169007   0.3415859
   1.0902829   0.0423386   0.0742890   0.8334109   0.4924450   1.0516586
   0.0449257  -0.0491885  -0.1042694  -0.0494786   0.3090605   1.3407153
  -0.1770300   0.1105036  -0.4532137   0.2365857  -0.1317028  -0.1202009
   0.6314918  -0.0619134   0.6003822  -0.7837238   0.4786965   0.7592587
   0.0548586  -0.1450153   0.2032776  -1.0690381   1.0453686  -0.9118899
  -1.4304585   0.8703851   0.8651730   0.0742531   0.0564485   0.2481992
   0.0890337   0.3494493  -0.5302535  -0.5557810  -1.8161820  -1.1990703
   0.2157779  -0.1897061  -0.1343683  -0.6750929   1.2973938   0.6595665
   1.3186597  -0.1174558   0.6073929   0.0528235  -0.2642138   0.1084048
   0.5394674   0.2232118  -0.1297304   0.8226281   0.1253951   1.0452913
   0.1461713   0.2035381  -0.0135981   0.2539567   0.3309753   1.1966273
   0.2768722   0.5888211   0.9392104   0.0243178  -0.1143585   0.0813832
   0.3127466   1.1665241  -1.3803086  -1.0712484   0.4252017   1.0623855
  -0.4692646  -0.3515276  -0.0176298   1.1265757  -0.1887352   0.2120920
  -0.0166890   0.8126962   1.0797697   0.1869162  -0.1353143   0.1359740
   0.5265721  -1.0928283   0.3060314  -0.4969089   0.2727134   0.5453179
   0.0567296  -0.0170041  -0.1729247   0.9631878  -1.2237476  -0.8031271
   0.0545360   0.5345952  -0.3599233  -0.2302418   0.0916751  -0.2641849
   0.1877142  -0.2404877  -0.3457388  -1.4075660   1.9610354  -0.2847134
   0.0081067  -0.2320788   0.0301413   0.8935457  -1.3674013  -0.0859895
  -0.3032538   1.8324690   0.3826733   0.1748991   0.0394943   0.0596213
  -0.6247258  -0.1487870   0.0102482   0.3741386  -0.6343857   0.7971466
  -0.3176179  -0.1594664   0.0349410  -0.4272199   0.4180856   0.5257958
   1.0049918  -0.3714267   0.5972286  -0.3157177  -0.1132819  -0.1242926
  -0.3583133  -0.3617831  -0.6189283   0.3861198  -0.8126342  -0.2774448
   0.1110667   0.0203653   0.2843646   0.5349157  -0.9256018  -0.5526384
   0.3507871   0.6457811  -0.8619210   0.1304257  -0.1930213  -0.0617811
   0.7707830  -0.0541676   0.8943745  -0.9692631  -1.0790000  -0.0881800
  -0.0775274  -0.3092456   0.2644410  -1.1378336  -0.2013621   0.1264879
  -0.3706052   0.7789526   0.3298159  -0.0935648  -0.1128259  -0.1627274
   0.6398552   1.1227528   0.5111451  -0.5418507   0.1318687  -0.7047474
   0.2199145   0.2033182  -0.0593238   0.2396386  -0.4740293  -0.4673677
   0.9097844   0.2188955   0.8500282  -0.0421034  -0.2370529  -0.1385920
   0.3504796   0.4919852   0.3318721   0.1339774  -1.4052168   0.4519804
  -0.1209077   0.0511152  -0.2962958   0.7416512  -0.5526823  -0.4250722
  -0.8446614   0.0809756   1.1937629   0.0742588  -0.3368186  -0.2553111
   0.1544032  -0.2310155  -0.0631697  -0.5657430  -0.0540153  -0.0165443
  -0.0277906   0.0657595   0.0791755  -0.6504814   1.7677024  -0.4251863
  -1.5760017   1.1722977  -0.6255774  -0.1745487   0.4503178  -0.3298882
  -1.6456306   0.2395972   0.4598544   0.9136599  -0.5328907   0.0236655
   0.4401959   0.3497505   0.1567256   0.3414265  -0.3264510  -0.2457180
   0.0093046   0.4963238  -0.1527059  -0.1373580   0.2831590  -0.2466175
  -0.1337875  -0.7089612  -1.5531854  -0.3614790   0.3065493  -0.7719378
   0.1285833  -0.0827050   0.1697274   0.4347488  -0.2889736   0.9193512
   0.6816386   0.1993626   0.7430529   0.0843949  -0.1634665   0.0320948
   0.4615880   1.1966163   0.2652196  -1.4589398  -0.1783052  -0.5366201
   0.1532067  -0.2031443   0.1412727   0.2525209   0.8918334  -1.2935493
   0.9374542   0.4428599   0.2145576   0.0690503   0.2036753  -0.0168091
  -1.1037830   0.0668577  -1.1470125  -1.4510212   0.1846202  -1.2014418
  -0.2225460  -0.2256606  -0.0428887   0.4238742  -1.1298218  -0.7437249
   1.2020145   0.3108162   0.2327378  -0.1791658  -0.2551482   0.2578486
   0.4518137  -0.1954897  -0.2671660   0.1850952   1.4714747  -0.3076894
  -0.0746586  -0.1378545  -0.1495944   0.3763039   0.8633507   0.0455370
   0.8732652   0.0422244   0.0222323   0.0566230  -0.1657528   0.0553100
  -0.5880738  -0.2600566  -0.4805382  -0.5632134  -0.8647115   0.6114126
   0.1457078   0.2798894   0.0134653   0.0050707   0.7029908   0.3099754
   0.9349259   0.0818416   0.1173015   0.1264280  -0.2934857   0.1005345
   0.9481477  -0.3061879   0.8233088   0.9812246   0.7510401   0.7075852
  -0.1932074   0.2649131   0.0491099   0.0558439  -0.7441167   0.0748417
   0.8104129  -0.0994753   0.0047679   0.1918193  -0.1038281  -0.0349844
   0.7607098   0.1035791   0.8459898   0.1197667   0.3172732  -0.0034093
   0.0866426   0.2014989   0.1459257   0.0690601   0.0763468  -0.1711546
   0.4605289  -0.9433200   1.6623077  -0.1756742  -0.0058090  -0.1466892
   0.9676346  -0.6157922  -1.0437578   0.7980764   0.8749804   0.2562133
   0.0445722  -0.2203580   0.2644805   0.0766781  -0.3622054  -1.8604038
   0.1960664  -0.2173171  -0.8194259   0.1215660  -0.2205956  -0.0287442
   0.2016318   1.3434334   0.3791604   0.3163315  -1.2150580  -0.4411819
   0.1951952   0.1737686  -0.1991135  -0.0572250  -0.0350776  -0.2781421
  -0.8148778  -0.3965649   0.8718013  -0.1379672  -0.3336354   0.2114732
   0.5990808  -1.5040855  -0.0026533  -0.6930972   0.4812259  -1.1215084
   0.0649906   0.0554924   0.0703865  -0.8912537   0.1693257   1.0458748
   1.0758573   1.2831944  -0.8318802  -0.0649811  -0.2341142  -0.0808198
  -0.2148602  -0.8082243   0.2725852   0.0393538  -0.2929715   0.9361381
   0.0695855  -0.2859114   0.2257064  -1.1111703  -0.6228268  -0.1066746
   0.6495137  -0.0565000  -0.3006525  -0.3125894  -0.4614395   0.0500599
   0.1539983   0.3436450  -0.0608260  -0.6166743   0.2321271   0.1018110
   0.4130861  -0.0010244   0.0248372   0.2569036   0.5023805   0.9019979
   1.0473916  -0.2224440   0.8352808  -0.0259969   0.0409278  -0.4523086
   0.0230557  -0.1034194  -0.2987462  -0.5181500  -1.1596942  -0.1186519
  -0.0622197   0.2478613   0.0391828  -0.8400179   0.7933852  -0.6373835
  -1.0578639  -0.1193170   0.6182788   0.1217549  -0.1033659  -0.2224645
   0.2182992   0.6529254  -0.4129581  -0.0944265  -0.8633583   0.8698559
   0.0996753   0.2745227  -0.0526808  -0.7978070   0.0191314  -0.7724586
   0.0441624   0.8983253  -0.2806230  -0.0322928  -0.0021622  -0.2205979
  -0.6510704  -0.6826556  -1.3608191  -0.2677524   0.5911559   0.4029489
  -0.0114426  -0.1123314   0.0394091  -0.4191679   0.6868206  -0.3103200
   0.3108546   0.4444503  -1.3363098  -0.1757317  -0.0561384   0.2661666
  -0.0486829  -0.9832094  -0.9364190   0.3108160   0.7633210  -0.8685114
   0.4784328   0.0605897   0.2805925  -0.9515745  -1.1344281   0.2048492
   0.1583561  -0.5418371   1.1387185   0.3227812  -0.1097899   0.2064376
  -0.2715374   0.3365353   0.3823406   0.3640989  -1.0466569   0.1874674
   0.0289899   0.0555307   0.1895766  -0.2847321  -0.4232301   0.7651194
   0.8010463  -1.5838102   0.7491889   0.0428480  -0.0148981  -0.0404330
  -0.0262253  -0.4150695   0.2226065   1.3613717   1.1472670   1.3792329
   0.0829868   0.1106878  -0.3697381  -0.3035741  -0.2210665  -0.3144944
  -0.0911197  -0.6077975  -0.6031492   0.2856989  -0.0583238   0.0620319
   1.1893302   0.7738689  -1.8598172   0.1533227  -1.5495435  -0.1077628
  -0.1695169   0.0834843  -0.0343472   0.3095286  -0.0130135   1.2850629
  -1.2556261  -0.2640395   1.4093560  -0.0575415  -0.4507518  -0.0378488
   0.9980584  -0.1665282   0.3418652  -0.2116814   1.3992030   1.0277362
   0.2199579   0.1120506  -0.2612525  -0.7716887  -0.8944304  -0.6866376
   1.0376016   1.3591949   0.6875827  -0.0741173   0.0962450  -0.0418822
  -0.8621649  -0.1669578  -2.4156675   0.6097723  -0.4880657  -0.7598528
   0.1016080  -0.1461482   0.0222681  -0.1834465   0.9821194  -0.0325554
  -0.3674115   0.0842815  -0.4051152  -0.1318737   0.1757068  -0.1107708
  -0.3129207  -0.3693711   1.3646821   0.4116094  -0.0718080  -1.3203841
   0.2938551  -0.0271848  -0.1030602  -0.1907750   0.3018497   0.8047660
   0.9917037   0.2104219   0.1602473   0.1864791  -0.4429271   0.1236661
  -0.0091320  -0.0299336   1.2733627  -0.6221316   1.0029666   0.1110018
   0.0358239  -0.1080212  -0.2121942  -0.0770624   0.1719718  -0.6667162
   1.6432463  -0.4490066   0.2453921   0.2238414   0.0157109   0.2586104
  -0.5264157   0.7561825   0.4069710   0.3335493   0.2870426   1.1836373
  -0.0771503  -0.0526503  -0.0854882   0.4462881  -1.0086977  -0.4784258
  -0.1427862   0.5961808   0.8459127  -0.0425723   0.0549936   0.5608308
   0.6642993   0.7427345   0.0850813   1.1907828  -0.1012115   0.5705783
  -0.2020890  -0.0537130   0.2299645  -1.4723235  -0.8572035  -0.2240412
   0.1308598  -0.6653468   1.3958487  -0.0844936  -0.1673988   0.1087332
  -0.0287096  -2.0123284   0.8825385  -0.0300342  -1.1842505   0.6783197
  -0.3623413  -0.0331455   0.0176464   0.4475689  -0.7453294  -0.7336242
   0.3550142   0.4483402  -0.5313203   0.3857009   0.0965519   0.2112575
   0.5463862  -0.5811993   1.2477338   0.3834170   1.2006753  -0.6350170
  -0.1176084   0.3345600   0.0841683   0.4482250   0.4148916   0.2820643
   0.3508495  -0.6218613  -0.2866885  -0.1282936  -0.0114611   0.3924692
  -0.4803564   0.2556071  -0.6014175  -0.2212705  -0.1460862   0.3859128
  -0.1429881   0.1116345   0.0810505   1.0794220   0.9975971  -0.4925790
  -0.7900834   0.7850660  -0.1619158  -0.0203161  -0.1794685  -0.0905581
  -0.5076076   0.2016591  -0.6970612  -1.0972300   0.1787977   0.3091707
  -0.0540223   0.1147139  -0.1461864  -0.4860540  -0.4308609   0.0540323
   0.4668421   1.4010707  -0.6010437   0.0875629   0.0674675  -0.0881360
  -0.0808040   0.7983586  -0.6410977  -0.2646680  -0.1765989  -0.1086853
  -0.0859352  -0.1919462  -0.3499856   0.5659192   1.4317519  -0.3756848
  -0.4939138   0.2420774  -1.0468967   0.0434924  -0.3088631  -0.1294470
  -0.5704232  -0.9340797  -1.3897630   0.6697372   1.0139927   0.6988201
  -0.1731725  -0.2959435  -0.0683676   0.5460448  -0.5872751  -0.2537427
   0.3668506   1.3137212   0.9807615  -0.0406641  -0.2189627  -0.2745390
   2.2310084   0.1449007   0.0366972   0.1327344  -0.4522140  -0.5209628
   0.0290976   0.0723133  -0.2220570  -0.0720104   0.0701923  -1.0831044
   0.2350376   0.0654733  -0.2375300  -0.3733992   0.1314237   0.0843875
   1.3087538  -0.1279150  -1.5095708   0.1688229  -0.4925225  -1.6908075
  -0.1361021   0.1486352  -0.1470419  -1.6831336  -0.0172169  -0.7203223
   2.1844545   0.1399788   0.6657545  -0.1991659   0.1288980   0.1023467
  -0.9998791   0.2616750  -0.0723476   0.8860714   0.8000772   0.4968801
  -0.0173475  -0.3328932   0.0052556   0.4637854  -0.0872020  -0.5465024
   1.1692897   0.4012075  -0.6153327   0.0116106  -0.1338842  -0.0816660
   0.2527626  -1.8373822  -0.0362196   1.2604755  -0.5331929   0.3295818
   0.3638034   0.0142707  -0.2401586  -0.1211643   0.5662115   0.4574147
  -0.4989048   0.3254490   1.1855891   0.0192221   0.0558298   0.1226808
   0.6693271  -0.3895891   0.2718363  -2.1686862   0.3657744  -0.9968034
  -0.3617948   0.1383133   0.0436533   0.8511483  -0.7375125  -0.3842343
   0.9140625   0.2215410  -0.7733251  -0.4005339   0.2206427   0.1628135
   0.3386027  -1.2165035  -1.1145698   0.7910482  -0.2236738  -0.2259643
  -0.0398129  -0.0441437   0.1381780   0.2767153   0.9270359   1.3681300
   0.5315355   0.6046258   0.1450101   0.3361433  -0.1374054   0.1603540
  -1.5529767  -0.6840097  -1.3437485   0.3462495   0.0628246   1.5644920
  -0.1375558   0.2067242   0.1360098  -0.8170236   0.5244368  -0.9779607
  -1.4247732   0.5005835  -0.3835830   0.0846347   0.2093734  -0.0543300
  -1.3502801   0.4943817   0.3779942   0.8285285  -0.1872858   1.0509140
   0.2867652  -0.0494587  -0.2898876  -1.1205354  -0.5221948  -0.0634654
   0.3101615   0.5597085  -1.0695482   0.1840002  -0.3461807  -0.2191860
   0.2950207  -1.4468686  -0.2098541   0.1557818  -0.9881059   1.1510949
   0.2587505  -0.0155285  -0.4031700  -0.6168222  -0.1891108   0.6975517
  -0.6505454   0.2878865  -0.0619867   0.1484339  -0.3667026   0.0223055
  -0.4739386   0.9753242   0.9245006  -0.3709336  -0.1868765  -0.6347123
  -0.0167974   0.2645400  -0.3175898  -0.9134019  -0.2880893  -2.0221306
  -0.9233988   0.1187433   1.1071613   0.2509329   0.0985652  -0.2374562
  -0.6654946  -1.2721848   0.5460445  -0.1516350   2.1021753  -0.7227648
   0.2125377   0.0654735   0.2923799   0.3489317  -0.3329599  -0.4928380
   0.1038720   0.5305254   0.3422982   0.0712161   0.0627853   0.1090174
  -0.2550358  -0.1973468  -0.3978677  -0.6846164  -0.0636355   0.3399557
  -0.0252478  -0.1100107  -0.4732291  -0.1838549   0.0827122   0.6091131
   1.6169335   0.4770731  -1.5621354   0.1650096  -0.2673285  -0.0709172
   0.0065321   0.1616542   0.2031964  -0.4385802   0.3094355   1.1881335
   0.0580124  -0.0307603   0.0534078  -0.8807756  -0.6277037   0.0433033
   0.3192130   1.0387397  -0.6522172  -0.0744885   0.3548947   0.2296403
   0.3894122   0.1941494  -0.5508843  -0.5194522   0.2849574   1.5446801
  -0.4044141  -0.1391363   0.2015636   1.1746206   0.4392038  -0.1546152
   0.3775218   0.8382173  -0.4373568   0.4030672  -0.0630465   0.4392895
  -0.9413859   0.1333462  -0.4249530   0.7135861   0.3328969   0.9891336
  -0.1804610   0.0002235  -0.2741156   0.4043896   0.7085060   0.8653374
  -0.4021011   1.5179897  -0.1618992   0.1352985   0.1101621   0.0638641
  -0.7722898  -1.5232452  -0.7239288   0.0044300  -0.1822079  -0.8846376
   0.1288052  -0.1371542  -0.1376761  -1.1892899   0.8416969   0.0883195
  -0.3853424  -0.8520593  -0.0328899  -0.2905244  -0.0727222   0.2033815
   0.7586234   0.1051414   0.8121323  -1.1228162  -0.7916986  -1.1030138
  -0.2843168   0.1139160  -0.1726438  -0.3916658  -0.1037058   0.5757157
  -0.5967952   0.0395341   0.5315190  -0.0402694  -0.0524487   0.0991870
  -0.3037408  -0.2322370   1.1277810   1.0786348   0.0282617  -0.1011014
  -0.1054492   0.1257053  -0.0108904  -0.2060843   0.1905617  -0.0993736
  -0.1168672   1.4767625   0.3584236  -0.2320300   0.0862572  -0.0896435
   0.3903970  -2.0116817  -1.5964302  -0.1437532   0.9173111  -0.4990575
  -0.4295837  -0.1285589  -0.3309218   0.6830804   0.2420548  -0.4225909
  -1.0121745   1.1214214  -0.0422221   0.0290241  -0.0544599  -0.2926467
   0.0787130  -0.3034626   0.5715609   0.7937503  -0.9955988  -0.2902311
  -0.0953175   0.4526048   0.1939590   0.4594748   0.6958319  -1.0004571
  -0.6391160  -0.4868688   0.7667823   0.1522429  -0.2966135   0.4430780
  -1.5881832   0.2829141  -0.0834235   0.1352406  -1.3027329  -0.4621829
  -0.1707274   0.0958957  -0.1607355   0.2930761   0.2478241   0.6714305
   1.2478736  -0.0833464  -0.9216381  -0.0715207   0.1387513  -0.1820794
   0.4724491  -1.2599448   0.9808907   0.2686823   0.7874011  -2.4238931
   0.1054998   0.3013918  -0.0704639   0.4753869  -0.1499638  -1.1534951
  -1.1439074   0.2087848   0.7771938  -0.1343462   0.0117731  -0.1638728
   1.1713785  -1.6367188   0.4541067  -1.5676633   0.1907116   1.1254372
   0.0824052  -0.1843337  -0.2254455  -0.6675921   0.1579028   0.6455685
  -0.4586892  -0.6113731  -0.5569648   0.1354324  -0.1118576  -0.0815294
   0.4713106  -0.9182433  -0.0578262  -0.0087520  -0.9423974  -0.2342635
  -0.3851204   0.0349915  -0.0010037   0.4035067   0.1304766   0.7687039
   0.6726738   0.0103677   1.0757239  -0.3322136   0.1173589   0.0086069
  -0.7785164   0.4613177  -1.2262518   2.3912531   1.0297601   0.4301797
   0.3562287  -0.0728875  -0.3329295   0.0889145   0.2035798  -0.0621399
   0.3542899   0.7247756  -0.6702024   0.2407401  -0.0635028  -0.5273398
  -0.4837651   0.6194597   1.3022456   0.1958679   0.0889875  -1.2484838
  -0.1650392  -0.2278301   0.1221004   0.3582945  -0.0874802  -1.1542850
   0.9151703  -0.6160243  -0.1656870  -0.2797434  -0.1029498  -0.2381282
   0.6448474  -0.2047721   1.0440306  -1.0367358  -0.1279863   0.4491795
   0.0573891  -0.1366075  -0.3744644   0.4021157  -0.0365978   0.1319007
   0.9539710  -1.2497038  -1.0028042  -0.1803523  -0.2992084  -0.0297278
   0.9646414   1.4617703   0.5068483  -0.4803038  -1.1500810   0.2340774
   0.0789091   0.0975261  -0.1753627   1.0640350   0.5789130   0.1149015
   0.9304165   0.6806969  -0.7855500  -0.2562958   0.1445637  -0.0529745
   0.4937723   0.6247969  -0.3958826   0.0230598   1.3042222   0.0582482
   0.4628002   0.2188285   0.2759698   0.4828447   0.6187349   0.4934202
   0.1693248  -0.8076210  -0.1038285   0.0427770   0.0245283   0.0174729
   0.4974656   0.3487912   0.6355901  -0.4499276   0.3239446   0.5848566
  -0.1348350  -0.0429576   0.1342764   1.2077487   1.0786510   0.3042723
  -0.3323248   0.1269457  -0.3890406   0.1228842  -0.2806768   0.1150655
   0.8403192   0.3959337  -1.4285029   0.0694289  -0.5062126   0.1900790
  -0.2549872   0.0553123  -0.0512889   0.0693186  -0.0315093   0.3701146
  -0.4520210  -0.3349726   0.7858149  -0.2174915   0.0554239  -0.3123571
  -0.5284412  -0.5569573   0.8206708  -0.0296391  -0.7909800   0.8940017
   0.0766880  -0.1703818  -0.2513983  -0.3167720   1.3596391  -0.8652178
   0.2753904  -0.1178085   0.0685278   0.1078076  -0.4102393  -0.3442373
   1.2675419   0.9756103  -1.2333357  -1.6392147   2.1025785  -0.2961352
  -0.2030428  -0.0430054  -0.2790769   0.2104485  -0.1459408   0.1283725
   0.3408960   0.0793320   0.5483384   0.0677986   0.1090080   0.0948514
   0.5600660   0.1878007  -0.3318557  -0.4032356  -0.1785140  -0.4818079
  -0.1774286   0.1447781   0.2401690  -1.9073312  -0.0017292   0.1924702
   0.1406919  -0.4391463   1.0676759  -0.2540588  -0.1062920   0.0461817
   0.7065192   0.4509923  -2.0354827   0.3878727  -0.1015097  -0.9033858
  -0.1764313  -0.1390152  -0.1057895  -0.8507518  -0.7114384  -0.2253945
  -1.2654743   0.3443235   0.4595842  -0.0640753  -0.2092791   0.1319270
  -2.2344792   1.3463763   0.2454726   0.9453776   0.5137467   0.7291948
  -0.1214236  -0.0386783   0.1413954   0.5206011   0.0507293   1.0125386
   0.4884830  -0.6319489   0.2133050  -0.0538724   0.2343018  -0.1643689
   0.9888147   0.8812530   0.5134206  -0.2184989   0.3102757  -0.0194982
   0.0184401   0.1431593  -0.1840527   0.8392405   0.1581996  -0.0606457
  -0.8332255   0.4999078  -0.0299125   0.0424024   0.3046544   0.2302516
  -0.7195994   0.7054626  -1.4402636   0.2762872  -1.3661772  -1.1099070
   0.4031436   0.2690513  -0.0152153  -0.4949975  -0.7630003   0.6944728
   0.3599941   0.3084947  -0.2031765  -0.2097285  -0.1929796   0.0546365
  -0.4820097   0.8629701   0.8451468  -0.8950105   0.4791131   0.2254784
  -0.0990955   0.3024868  -0.5106611   0.8152646   0.2251808   0.5191685
  -0.9367233  -0.9983858   0.2697734  -0.0975311   0.1334986   0.2745687
  -0.6823566  -0.7475417   0.1562145   0.8667875  -0.1675786  -0.2894004
  -0.1509957   0.0325791  -0.1322943  -0.9732872  -1.6154129  -0.9640969
  -0.4837739   0.1079850   0.4938539  -0.2669514  -0.0156106  -0.0002627
   1.4141951  -0.5800386   1.9525402  -0.3911759  -0.0088146  -0.7784488
   0.1184045   0.1747567  -0.1912047  -0.6812141   0.1999617   0.9359452
   0.7846782  -0.4993827  -0.9967716   0.0336857  -0.2698621   0.0656588
   0.8247895  -1.1379063  -0.7137464  -0.1880039  -0.1089335   0.6140224
  -0.2918099   0.2866997   0.2137575   0.0665433   0.1791299  -0.8894953
  -0.4141734   0.7410775   1.0598334   0.1257119  -0.3125768   0.1114007
   0.7715227   0.3439051  -0.8878210   0.0051818  -0.1600038   0.2027406
   0.1311203   0.2305654  -0.1585929  -0.0496967   0.8654424  -0.7290145
  -0.1791143  -0.3800754   0.5770850  -0.3405052  -0.1323915   0.3492443
  -0.6547869  -0.2431292   0.2949609   0.1546725  -0.9804046   0.0640203
  -0.0263524  -0.3042937  -0.0138018   0.7798715   1.1815960  -0.7094451
   1.0589569   1.0825981  -0.8052929   0.0172935  -0.0526769   0.1639370
   0.3077134   0.4214579   1.0547042  -1.5413272   0.0652362  -1.0354103
   0.1780748   0.1739938  -0.0817465   1.3473384   0.2216162  -0.5989848
  -0.2321823  -0.2708873   0.0332844   0.2186173   0.3512675   0.1587130
  -0.7013329  -0.0412809   0.7794081  -1.4736157  -1.6042065   1.6064289
   0.1319561  -0.0255412  -0.0468690   0.0542976  -1.5959192   0.5290444
   1.3260674   0.3621242   0.6634879  -0.0643121  -0.0783965   0.0873104
   0.6123843   0.4655881   1.8336681   0.3750989   0.8028286  -0.9886938
   0.2037251  -0.3242578   0.0579962   0.6369464  -1.2826893  -0.2980117
   0.2075837   0.3570082  -0.7389332  -0.3152691   0.3525833   0.1977274
   0.5597654  -0.4852347  -0.8074592   0.9083244   0.2119445   0.3314781
  -0.4644104   0.0281411  -0.0293644   0.7101292   1.3214526  -0.0241416
   0.6462964   0.1984777  -1.7454976  -0.1852692  -0.1281629  -0.4032329
  -0.0757026   1.0438453  -0.6963899  -0.6642933  -0.5400598   0.6626420
  -0.1437584   0.0702643  -0.0419893   0.1515058   0.7218092  -0.4496595
   0.2407554  -0.6009582  -0.3146578  -0.1249090   0.0273116  -0.2195085
   0.0592869  -0.2543399  -1.0056179  -0.4024501  -0.3107279  -0.3269732
   0.2051985  -0.2532733   0.0613271  -0.3101146  -1.2150819   0.8098278
   0.1174272   0.0754160   0.3496722  -0.1696070  -0.2682818   0.0679739
   0.1772016  -1.1745822   0.7569248  -1.6333655  -1.6438823  -1.0721822
   0.0113163   0.1752672   0.3327414   0.2396356   0.7644360  -0.5366953
   0.0618784  -0.5878278  -0.7722179  -0.0489217  -0.1430942  -0.2028147
  -0.1533863   0.3871300  -0.4087483  -0.6678739   1.0399520   0.9449931
   0.0520833  -0.1798812   0.0109007  -1.2498739  -1.4654996   0.3128215
  -0.5461847   0.0216369   1.0879309   0.2647954   0.2085588  -0.0179724
   1.0160572   0.4890139   0.3224226   1.1479444  -0.6997138   0.6040475
  -0.0937562  -0.3963136   0.0140346  -0.9211407   0.6841928  -0.0455618
   0.1799595  -0.5873223   0.0083136   0.0454154  -0.1021857   0.0810706
  -0.8602873  -0.6630156  -0.5087008  -0.4452430   0.3692767  -0.7927589
  -0.3005749   0.0403507  -0.0039240   0.8662639  -1.3566964   0.3316403
  -0.1432057   0.2378195   0.0603395  -0.1706389  -0.0328838  -0.1081576
   0.1842646   0.6780134  -1.3496150  -1.2188655  -0.6188425  -0.5047103
  -0.0146287   0.0916934   0.0040163  -0.5195120  -1.4188647  -0.7125906
  -1.3445694   1.4405682  -1.1882801  -0.0637846  -0.2289078  -0.0061555
  -0.2563691   0.6807069   0.3035492  -0.5597312   0.8297075  -0.8629527
   0.0255242   0.0928285   0.2399646   0.9926550   0.7472002   1.1862967
  -0.6940130  -0.0286977   0.9854621   0.0050171  -0.1430773  -0.2191225
  -0.2895822  -1.1503596  -0.8825859  -0.4099900  -0.6644955   0.6520722
   0.0848990  -0.1086588  -0.0313025   0.1902388  -0.1763664   0.2407169
  -0.6619339  -0.3571870  -0.2935628   0.2371850  -0.0695036   0.4165263
  -0.2684220   0.2879010  -0.3652412   1.1610404  -0.9323360   0.6410343
   0.1552341   0.4596665  -0.1624039  -0.6430477  -0.2267115   0.3938450
  -0.1012960   0.1465427   0.6806805  -0.0343502  -0.1593460  -0.0293110
  -0.1984639  -0.3974952   1.3622791  -0.5998581   0.3770684  -0.1644420
   0.1003749   0.2945036  -0.0147169   0.1099493   1.4382562   0.1045910
   1.5233259   0.3686643  -0.0043158   0.0868512   0.0869638   0.0629437
  -0.7634260   0.3260176  -0.7311014   1.2821533   1.3762275   1.6143606
  -0.1684988   0.2206519  -0.1246624  -1.2399031   1.8338474   0.2986378
  -1.0403194  -0.0370923  -0.4540292  -0.2344203  -0.1421189   0.0192071
  -0.8960747  -0.7148549   1.1798629  -1.2011069   0.1835020   0.2169365
   0.0548504   0.1922585  -0.0449796   0.5843546  -0.5875169   0.5801385
  -0.2901422   0.0871277   0.0602850  -0.1664944  -0.3627385  -0.2311444
  -1.2263644   0.0300186   1.2966428   1.3447138   0.5227131  -0.8081833
  -0.0708163  -0.0522804   0.1621534   0.4064373   0.0006375  -1.6540930
  -0.0570799  -0.7291315  -0.1078460   0.0203776   0.0662197  -0.2443359
  -0.0500799  -0.2641383   0.0468783   0.7527583   1.2315080   0.5661570
  -0.3208321   0.0186218  -0.3403922   0.8993736   1.3534344   0.8519184
  -0.6424725  -0.3768135  -0.6348393   0.0596550   0.1791339  -0.0788506
   2.0359660  -0.0964041   0.8822533   0.5399678   0.4056310   0.5598874
  -0.0374544  -0.1320546  -0.2282391  -0.5238106   0.7741849  -0.2783143
  -1.2504397  -0.7135756   2.1987677  -0.1787033   0.0029517   0.3012240
  -1.0856825   0.1416689   0.9721790  -0.2612451  -1.6673126  -0.3125409
   0.3016092  -0.0186486  -0.0892342  -1.1892351  -0.2351105  -0.6642305
  -0.2025287  -0.2870720  -0.4120295   0.2471104  -0.4285896  -0.1053569
   0.6794277  -0.1810887   0.2625906   0.0519663   0.0499913  -0.1730673
  -0.3586033   0.0833486   0.1275720  -0.3644537   1.7151365  -0.2301778
  -1.4166770   0.0551788  -1.4393435   0.2955401   0.0071745  -0.0783716
  -0.2541207  -0.9103788  -0.0691883  -0.3817883   0.3319166  -0.1126729
   0.3956002   0.1010412   0.2250702  -0.9557640  -0.7411878   0.3815864
  -0.1750497  -0.1941831  -0.0594853  -0.3240062  -0.3053467  -0.2090832
  -0.2976418  -0.4936173   0.2576996  -0.1847848  -0.9520522   0.2869343
  -0.0839675   0.3335719  -0.2226317  -1.8151669   0.4529132  -0.3847478
   1.1303930  -0.1250917  -0.7448017   0.0104827   0.2521089  -0.1393512
  -1.0798209  -0.6292216  -1.8204023   0.8968075  -0.8131039   0.1054250
   0.0356870   0.0327646   0.2444641   0.8548736  -0.5976014   0.1036120
   1.2608272  -0.0352765   1.0185424   0.1532194  -0.1132825  -0.1128836
   0.6520909   0.1780012   0.3070739  -0.6158476   1.0471174  -0.0590543
  -0.0505805   0.0979959   0.0606940  -0.8961725  -1.4827188  -1.6323269
   0.4223903   1.2984631  -1.2559670   0.0025896  -0.1915813   0.1590141
   1.1823345  -0.1754975  -0.0950357  -0.5330903   0.0932813  -0.5351969
   0.1407889  -0.0451456   0.3622855  -0.0534739  -0.3896161  -0.1398266
  -0.9948416   0.9440955   0.2633605  -0.0204465  -0.0187786  -0.1106978
   0.3462851  -0.9907441   0.0014893  -0.2907838   0.3867983   0.5832687
   0.0384427  -0.1461032   0.1602256   0.8319627   0.2838740   0.3375758
  -0.8213997  -1.6157118   1.1583879   0.1930662   0.1205273  -0.4475727
  -0.6950172   1.0203791   0.4603398   0.7452387   0.9109118   0.0828768
  -0.0845736   0.1831533   0.1574439  -0.3514507   0.0934836  -0.6800630
  -1.8930046  -1.2950733   0.2262437  -0.1781009   0.1660364   0.1905198
   0.5639702   1.4119793  -0.0870310  -1.6087908   0.7171451  -0.0380599
  -0.2022414   0.1678945  -0.1750018   0.2645132   0.2856783   0.0439386
  -0.3038794   0.0592558  -0.0223876  -0.2083657  -0.0072421  -0.0550670
   0.2756694   1.8209099  -0.1144462  -0.5800227   0.5156400   0.1819025
   0.2024155  -0.2296250   0.0013106  -0.0373175  -1.0374329  -0.0068575
  -0.2265612   0.8503202  -0.8721670  -0.1378127   0.2514598   0.0515571
  -1.0637219  -0.7369622  -0.6491503  -0.7679628  -0.3099220  -0.3406059
  -0.1286250   0.0938205   0.3162877  -0.6858371  -0.4759688   0.7453351
   0.1037886  -0.4611781  -0.5006761   0.0442007   0.2888723   0.1602465
  -1.4483620  -0.3413945   0.3652072   1.6471246   0.8170051  -0.1150004
  -0.0341139  -0.0057434   0.0054134  -0.6645142   0.1760617  -0.2556874
  -0.9694507   1.0231010   0.4382316   0.1403484  -0.4362467  -0.2440860
   0.3203717   1.0513122   0.4872958   0.1076981  -0.2418404   1.2830995
  -0.1088195  -0.0359609  -0.1084255   0.0154173  -0.6010202   2.5521761
  -0.2452621  -0.6843046  -0.7174361   0.2705146  -0.4977155  -0.3743954
   0.9085738   0.5765957  -0.8500226  -0.8330301  -0.5625033   0.0773362
   0.0231441  -0.1815662  -0.1951044   0.0645070   1.6591275   0.6181635
   0.7417084  -0.2502980   0.2167993  -0.0810773   0.0871397  -0.0788460
   0.5719735  -0.2621377   0.4789557  -0.3255378  -0.3476777  -0.4930986
  -0.0688837  -0.1644752   0.1334487  -0.0136097  -0.0685505   0.5588520
  -0.3020106  -0.3974880   0.5165751   0.0303665   0.0737522  -0.4794124
  -0.5130779   0.4950991  -0.0255987   0.0032412   0.3461767   1.4987161
  -0.1757629  -0.0280873  -0.2697391   0.4501993  -0.8885858  -0.4054276
   1.8553571   0.3128596  -0.1292702  -0.3570461   0.1692051   0.0296798
   0.4209449   1.2609494  -0.3486072   0.4015146   1.1190418  -0.8975148
  -0.1048520   0.0366081  -0.0087617   1.2053575   0.0095805  -1.2851751
   0.1395019  -0.3264815   0.1014352  -0.2398047  -0.2142684   0.0121090
  -0.0688420  -1.1250149   0.8771347  -0.5736610   0.2355181  -1.6854590
  -0.2959095  -0.1325855   0.1131358  -0.2475252   0.1132052  -0.7231429
   0.7714707  -0.9956067   0.4753245   0.2641831   0.2950897  -0.0489016
  -0.2317221  -0.6968114   0.1899423   0.2247004   0.1108024  -1.1362394
   0.0540648  -0.1654855  -0.2052272   0.3606932   1.1339724   0.0711706
   0.1480034  -0.8558514   0.5356239   0.2290391   0.1579489   0.1886923
  -0.4563465  -1.3735653  -0.5166511  -0.7760773  -1.2536540   0.1565343
   0.1942448   0.0397970   0.1949416  -0.8869577  -0.7383863  -0.3214728
  -0.6356818  -0.6399124  -0.4809851   0.1939356   0.2007394   0.2599051
  -0.2914561   1.0683282  -0.4898982   0.2484500   0.4114600   1.4478607
  -0.1422592  -0.0339691  -0.2192458   0.5465585   0.0642956  -1.0388580
  -0.2361743   0.8715607   1.0978471   0.0132878   0.0303517   0.0755296
  -0.4610958   0.2309183  -0.6820397   0.4980923   0.8054770  -0.2808527
   0.1853651  -0.0061324  -0.1160189   0.1346864  -0.8042910  -0.2163143
   1.0527967   0.4500928   1.1513196  -0.1022216   0.0020007   0.0190719
   0.3747111   1.3259985   0.2992964   0.9172342  -0.6878040   1.0763599
  -0.0285037   0.1645123   0.0733413   1.3979092   0.0139356   0.3336157
   0.3589094   0.1098106  -0.1438474  -0.1714609   0.0136168  -0.0183984
  -1.1786139   0.4390391   1.1018319   1.8457397  -0.2595608   0.8327310
   0.2235124   0.0611557   0.1580545   0.1137765  -0.4147561   0.2142791
   0.5325125  -0.7492356   0.3209681   0.0611711   0.1103661  -0.1097624
   1.0301114   1.3364744  -0.3833543  -0.4518472   0.4973618  -0.5097572
   0.2263166  -0.2139704  -0.2155219   0.6725141   0.1933654  -0.0382732
  -1.6473801   0.4832104   1.0336907  -0.0696160   0.2382521  -0.0762396
  -1.8256228   0.3622681  -0.9647444  -1.3048484   0.8660682  -0.7076314
   0.0300616  -0.2176236  -0.2708642  -0.8483550   0.7538625  -1.0195205
  -0.6228162   0.9171266   0.1892950   0.0949652   0.6151722  -0.1514694
  -0.4917878   0.3035259  -0.1366445   0.3386783   0.8664697   1.1183840
  -0.1902334   0.0082596  -0.1671457   0.4189805  -0.4558164  -0.2614197
   0.0044934  -0.6245855  -0.2526658   0.1250822   0.1906505  -0.1519123
   0.3176784  -0.0233192  -0.2544656   1.6015089  -1.4650173  -0.5073893
   0.1115704  -0.3797215   0.0467299  -0.2348019   1.5606911  -1.5840860
   1.9002680  -0.4840984  -0.1061718  -0.0915147   0.2698406  -0.1160017
   0.2072257   1.1100723   0.2138734   0.1022552  -2.3939799  -0.0794924
  -0.1767592   0.0783084  -0.1158582   0.7914322   0.2535320   0.4006417
  -0.2885755   1.1250694   0.0927306  -0.1104680  -0.0458127   0.1408836
  -0.9552589  -0.5990827   1.3414219   0.2097418  -0.2621623   0.7194519
  -0.0702108   0.0052800  -0.0323564   1.5840925  -0.0260176  -0.3954763
   0.6807277   0.1801959   0.5605782  -0.1967176   0.2410802  -0.3433284
   0.0750615   1.1190355  -1.2769241  -1.0581291   0.8787472   0.2104313
  -0.2417646   0.1097434  -0.0573570   0.7949958   0.2567930  -0.7881191
   0.4912274  -0.1345560  -1.0001174   0.5499213   0.3086176   0.0830661
   0.2362702  -0.8878326   0.0641145  -1.4099010  -0.3454638   1.6576385
   0.0969631   0.3959881  -0.1919441  -0.0997166   0.5248081   2.3177621
  -0.0301820   0.3808895  -0.1432020  -0.1569562   0.3125871   0.1068163
   0.3276173   1.0272117  -0.0288345  -0.0382973   0.5127044   1.4772708
   0.2406630  -0.0344292   0.0981983  -0.8840412   1.4668784  -0.1818147
   0.4395444  -1.7228143  -0.2123139  -0.0704582   0.0563679   0.4818303
   0.3180994   1.1075923  -0.6516306   0.2439232  -0.9221279   0.2374872
  -0.0611029  -0.3976313   0.2077006  -0.7272606  -0.7144104  -0.3157005
   0.6857148  -1.7107829  -0.4894660  -0.0688694   0.2590098   0.2028643
   0.5332631  -1.4894688   0.5586160  -0.6564373   1.4506288   0.5299794
   0.3415619   0.0125123   0.4514734   0.2189603   1.2435755   1.0569442
   1.4225569   1.8708654   0.1135580   0.2888945  -0.0110982   0.3425156
  -0.9054234  -0.1295970  -0.2237288  -1.3931997  -0.9222835  -0.3424523
   0.0648988   0.2258518  -0.1197454  -0.3492487  -1.1253885  -0.6324475
  -0.2174580  -0.1575278   0.2344885  -0.1218375   0.0620358   0.3997221
  -0.5939332  -0.3580888  -0.4187962  -1.1724410  -0.7875744  -1.7539789
  -0.1356597  -0.2027352  -0.1254418  -0.1271096   1.3594832   0.5809255
   1.2783424   0.1744489   0.1451877   0.0344897   0.3751411  -0.2575452
  -0.1406361   1.0434357   1.0057921   0.7581116  -1.1541341   0.4492557
   0.0001883  -0.2354540  -0.0997991  -0.0210676  -0.2317155   1.0356548
   0.4800903  -0.8860550   1.0591943  -0.1369010  -0.2142315   0.0443994
   0.8914230   0.9126325   1.7157457  -0.7315441  -0.4969638  -0.7507862
   0.3334151   0.2097306  -0.1904408  -0.5009295   0.0947858   0.8319519
  -0.8531438  -1.5532420   0.0089696   0.1726101   0.1463222  -0.0065260
  -0.5813006   0.5167234   1.8073291   0.5555639   1.4432777  -0.6530872
  -0.0181492  -0.1660599   0.0891181  -0.3857253   0.6705332   0.1900608
  -0.6619524  -0.3164592  -0.5740133  -0.2665284  -0.1817042   0.0417659
   0.0595979   0.2536102   0.5287184   0.3770843   0.6389571   0.9184493
  -0.2616870   0.0782193   0.1108518  -0.1508390  -0.1509925  -0.8500383
   0.0156710   0.5977474   0.5076538   0.1379058  -0.1291900   0.0343711
  -1.4484484   1.3862620   0.6476726   0.0541123   0.2734101   0.2520563
  -0.1677805  -0.1141469   0.1083517  -1.6866004  -0.1550974   0.9382200
  -0.0454286  -0.2172734  -0.6117806   0.2379971   0.0763685   0.0968181
   0.4403489  -1.2664333   0.1087508  -2.4825343   0.4566677  -1.2524824
   0.0283457   0.1733262   0.0273869   0.5694631   0.5271710  -0.4847232
   0.1450470  -0.7253885  -0.8237590   0.2265110   0.0716533   0.1587224
   0.0573637   0.8834836  -0.0954403   0.3923734  -0.9521805   0.4306533
   0.3754395  -0.1497331  -0.0352204   0.2401081   0.7319671   1.3257654
  -0.3230185   0.0252842   0.3278630   0.1534987  -0.1049084  -0.0576822
  -0.2204649  -0.3953232   0.4569775   0.4649757   1.7502152  -0.2292461
   0.0235276  -0.0370611  -0.1090719   0.1288587   0.7706403   0.3291101
   0.4518904   0.2549688  -0.1787595  -0.0573865  -0.1846979   0.3456607
  -0.0534743   0.6952170  -0.0165692   0.2755821  -0.4438652  -0.4640449
   0.3976837  -0.0244976   0.2852393   0.1014158  -0.1761225   0.2906621
  -0.4607344   0.4018402  -0.7639484  -0.2571317  -0.1096528   0.2742355
   0.4830436   0.1189246   1.0095765  -0.0143790  -1.7594067  -1.2376732
  -0.1507217  -0.0320699   0.1034509   0.8747618   1.6845595   0.0456205
  -0.1591855   0.8436958   0.6853270  -0.1975083   0.1654459  -0.0024975
  -0.4456822  -1.3883542   0.0602013   0.1498038  -0.0300544   0.9771145
   0.3202497  -0.5174356   0.0184535   0.0851515   1.1999296  -1.2017422
  -1.2358337  -0.6439273  -0.8127587   0.1396423   0.2694317  -0.1036419
   0.9174043  -0.4898121   0.1983969  -0.3190634  -0.1787151  -1.5016945
  -0.2134149   0.0028348   0.0902116  -1.4530010   0.5689904  -0.4826625
  -0.1999579  -0.8339849  -0.2182461   0.0527280  -0.1553183  -0.0697937
   0.1481654   0.8673286  -1.3673441  -0.0432555   0.5244659   0.1517225
   0.0865748  -0.0377676  -0.1262354   1.4192766   1.2497184   0.5864074
   0.4055391   0.0605379   0.8245831   0.4864255  -0.3967648   0.0617124
  -0.3951096  -1.5892792  -0.7975062   0.7640622  -0.7634151  -0.0623184
   0.1255523  -0.1484882  -0.1467533  -1.3963382   1.4124615   0.4496722
   0.2973304   0.0846842   1.2003156  -0.1355714   0.1931618  -0.1177000
  -0.0694600   0.1389102   0.0355430  -1.2354985   0.1514472   0.9429827
  -0.1658591  -0.1669837  -0.1106837   0.6932138  -1.1645788   0.1002104
  -0.1259453   1.1273571   0.0382881  -0.2826023   0.3068958   0.1827920
  -0.8878630   1.3281985   0.3699814   1.2327470  -0.1655352   0.7743866
   0.1615328   0.0658672  -0.0939250   1.7104090  -0.8749022   0.2960991
   0.5681895  -0.0543883   0.1907432  -0.1746900  -0.0358152  -0.1775236
   0.1348365   0.1768235  -0.0311319  -0.4591475   0.3778652  -0.3876871
   0.2939823   0.0939109  -0.1626426   0.4942073  -0.1725979  -0.8921992
  -0.5006735  -1.3387355  -0.0807166  -0.0361059  -0.0804947   0.7608537
   0.0892474  -0.7864937   1.1233185  -1.3090974   1.4257943   1.0536292
   0.2049888  -0.4124704  -0.0723929   1.1700106   0.1167716  -1.6135834
  -0.2783953  -0.4617127   0.2228104  -0.1968255  -0.0201807   0.2179394
   0.9364144  -0.5382289   0.2022210  -0.2719777   0.5819732   1.0403171
   0.0908215  -0.2370753  -0.0917026   1.3676403  -0.0395356  -0.4150437
  -0.7795258   0.4934840   1.1200149   0.3673714  -0.0585189  -0.1512651
   2.0390775  -0.1496500   0.2951674  -0.6846427  -0.1696533  -1.1809439
   0.4496390   0.2435859   0.1694624  -0.4147676  -1.0104448   0.5395954
  -0.3967633  -0.9049199   0.3509662  -0.4089116  -0.1477422  -0.1246474
   1.2715493  -0.8428087   1.4238359   0.5679707   0.6881086  -0.1359535
   0.2665481  -0.1084088   0.0250204   0.2637835   0.1398787  -0.6832561
  -0.8329849   0.0512799  -0.8774962   0.0037660   0.3100826  -0.4539739
  -0.4211486   0.5858864   1.2304098  -1.1865891  -0.1589166   0.2429713
   0.3118475  -0.1628473  -0.0365737  -0.8851336   0.4375328   0.8223533
   0.3016181  -0.9136807   1.1984371  -0.2052288   0.0114883  -0.0488424
  -0.1965939  -0.1308541  -0.4245729   0.0186595   0.3355287   0.7337888
  -0.1714892  -0.0628710  -0.0643973  -0.4530647  -1.0549809   0.3426853
   0.1382013   0.3664571  -1.3585433   0.3866691  -0.3167719  -0.1487596
  -1.4659695  -0.0659732   0.2685580  -0.3074099  -0.8453688  -0.3832538
   0.1587352  -0.0766825  -0.1349127  -0.5239934   0.2883284  -0.4115399
   0.4743170  -1.2211913   0.2268864   0.5254945   0.1243502   0.2126573
   0.5265563   0.4783870   0.2109132  -0.2149358   0.7358384   0.5500260
  -0.2162080  -0.2662320   0.0688745  -0.5608560   0.4751525  -0.7946272
   0.3418681  -0.2269544   0.7412487   0.1351514  -0.0419486  -0.0861717
   0.3784746   0.1284275   0.7038021  -0.6410356  -0.0882913  -1.4993719
   0.0612052  -0.0280002  -0.0763588  -1.2090052   0.1313669   0.0883308
   0.4052932   0.6426891   1.9787075   0.0817027   0.0282064   0.2064828
  -0.0295750   0.1856553  -0.4922099  -0.1637019   0.5828679  -0.5318930
   0.1107600   0.1648596   0.1367770   0.3780315   0.6827987   0.2407146
  -0.5192611  -0.4073888   0.5892739  -0.1228233  -0.0880560   0.2543678
   1.3580116   0.3041951  -0.1445925   0.4450560  -1.0828723   0.0064017
   0.0210460  -0.0117521  -0.1552598   0.3748910  -0.2294636   0.4437535
  -0.2082590  -0.5958887   0.2785371   0.1325569   0.3331661   0.0946805
   0.7783265   0.2832016   0.0870027  -0.6921321  -0.1174361   0.1700239
  -0.2145864   0.0458425  -0.1481685   1.7130276   0.6526726  -1.0482897
   0.4653259  -0.4464057  -1.1286001  -0.6950648   0.0068652   0.2717715
  -0.7285169   0.0907281  -0.6934388   0.3294813  -0.4542513   0.8311097
   0.2268128   0.0498241   0.1326930  -0.7145068   0.0840549   1.1116590
  -0.1114116   0.3629766   0.9048292   0.0303178   0.0318705   0.1796580
   0.0709883  -0.9071079  -1.7207458   0.6615709   0.0538282   0.6340426
   0.0404767  -0.0068183  -0.1357087  -1.3129375   0.5809146   0.1620675
  -1.1634454   1.3086047   0.1545925  -0.0624040   0.2946670  -0.1721973
   0.1036288  -1.1801826  -0.1871128  -0.0673740   1.3911829   0.0325510
  -0.0983802  -0.3416081  -0.0507366  -0.6530755   0.9204236   0.6392687
   1.7382868  -0.3397457  -0.3160156   0.2091088  -0.3665614   0.1405047
  -0.7357311   1.3352483   0.0173989   0.4784315  -0.5445526   0.4571394
  -0.3430598  -0.0470825  -0.1789850  -0.6772568  -0.0716753   1.2063742
   0.6117261  -0.9371783  -0.3539434   0.1280218   0.0401215  -0.2023544
  -1.2805248   1.3828997   0.4695996   0.2332981  -0.0622403   1.3501525
  -0.0446038   0.3229143  -0.1812985  -0.2036119  -0.1666984  -0.4548200
  -1.2632993   0.3773684   1.9773054   0.0087485   0.3065573   0.1236700
   0.0543101   1.5826023  -0.3049423  -0.3252996  -1.5897502   0.1240471
   0.0370091   0.1287958  -0.0492801   1.5826697  -0.4949420  -0.6923349
  -0.2393887  -0.6872494  -0.1468540   0.0641657   0.4208453   0.2763969
  -0.7352272  -0.3076894  -0.3735765  -1.2764307  -1.2006772   0.8025583
  -0.1344412   0.0659968   0.3745810   0.2484139  -1.0679520   1.4455037
  -1.2655249  -2.4992674  -0.5963130  -0.0766839  -0.0400016  -0.2852436
  -1.1723709   0.2039846  -0.7083045   0.2060244  -0.1307310  -0.8881188
   0.3613379  -0.1805272  -0.1882072   1.2878901   0.1707316  -0.7452533
  -0.1460694   1.5023137  -1.7015985  -0.2343502  -0.3631655  -0.0444636
  -0.7256728  -0.1526993   0.8161804  -0.6386425  -0.0899687   1.0199119
  -0.0246178   0.2968651   0.1151485   0.4487815  -0.2911420   1.0334178
   1.6073076   0.1333018   1.7345761  -0.1479385   0.0743331  -0.0266123
   0.0723987   1.1337020  -0.4031501   0.2111784   0.0224542  -1.0735412
  -0.0974474   0.0430056  -0.1101785  -1.0109418   0.2631846   0.5396077
  -0.8630673  -2.2385856  -0.4376943  -0.0660006  -0.0181886  -0.3281863
   0.0510242   0.3029815  -0.1075197  -0.7461074  -0.6932982   0.4107687
   0.2220622   0.1228877  -0.1950223  -0.0881334   0.6689488  -0.0468870
   1.7540942   1.2659892  -0.1652617   0.3430631  -0.1000005  -0.1792180
  -0.7520729  -0.3800781  -0.1255808  -0.2410847   0.6018182  -0.7655322
  -0.1503912   0.0568908   0.0638467   0.5861653   1.4401421   1.4018659
   0.8571161   1.1620985  -0.1286711   0.4175429  -0.0668126  -0.0521175
  -0.0249434   0.1445537   0.3178704   0.1808755   0.4682238   1.1785396
  -0.1147742  -0.4249319   0.0055316  -0.2751554  -0.0757036   0.0842542
   0.5426513   0.3690598   0.8757571  -0.0155440   0.0723437  -0.1427611
   1.2646451   0.4242253  -0.1987142   1.0527062  -1.7231509   0.9428342
  -0.0251500   0.0832981  -0.0467685   1.2841351  -0.7776761  -1.0875422
   0.2491706   0.9743534  -0.5476047  -0.0864048   0.0484173  -0.2240788
   0.1864293   0.2819241   0.1461793   0.5547830  -0.3609517   0.9179224
   0.1200454  -0.1757189  -0.0867320   0.6082865  -0.2442651  -0.7058357
  -0.5051416  -0.4295468  -0.7592543  -0.0639599   0.1317875   0.1347244
  -1.3942550   0.4941069  -0.8311381   1.0411585  -1.4353533  -0.2431479
   0.0053565  -0.0767294  -0.0300107  -0.9097009  -0.2405204   0.0551563
   0.3064863   0.4133377   0.6587394  -0.1682124   0.2041864  -0.1503046
   0.4029426   0.8999884   0.2692308  -0.3966547   0.3184865   0.1030520
   0.1000662  -0.0370625  -0.0103039   0.2617326   0.9559825   0.1109389
  -0.0318306  -1.6126078  -0.7856955  -0.1224826  -0.1863715   0.2304918
  -1.3743432  -0.7162253  -0.3369096   1.0548245  -0.8083235  -0.4031690
   0.0014884  -0.0855383  -0.2663643   0.6863744   0.5347716  -0.7134855
  -0.7148629   0.1968799   1.0262352  -0.0585235   0.2120041   0.1090737
   1.2743841   0.7545667  -0.1350768   0.8052793   0.7580889  -0.3408340
  -0.0681757  -0.1908824   0.0932937   0.2021394  -0.4380313   1.9256887
  -1.0013719  -0.0624191   1.2334482  -0.1756230   0.3925832   0.0368132
   0.3369508   0.2795063  -0.8307542  -0.4115760   0.6147356   0.2703455
  -0.2123687  -0.0581300   0.1973095  -0.1527069   0.0493280  -0.6076175
  -0.2619119  -0.0557682  -0.0181269  -0.0512695  -0.0106053  -0.0018839
  -0.4568535   0.5979848   0.0651642   0.7005440   0.1013886   0.8157414
  -0.2419111  -0.0609523  -0.4031842   0.0885381  -0.0932645   1.0812092
   1.0659335   0.7188583  -0.6991552  -0.2781433  -0.2275906   0.3129001
  -0.2679131   1.6431808   0.9424542  -1.0103129   0.6596570   0.7672057
   0.0808440   0.0905561  -0.0164825  -0.7695389   1.0638448  -0.5144487
   0.0579668  -0.6580431  -1.4820956   0.1077900   0.3804579  -0.0915582
  -0.9547511  -0.2106956   0.2543931   1.1690021  -0.4463978  -0.0513534
   0.0563401   0.1202329  -0.3354667  -1.1787235   0.6842573  -0.0040439
  -0.2952788   0.8218969   0.6885145  -0.1566989  -0.2942804  -0.2772000
  -0.4981258  -0.8340288  -0.6227564  -0.8287045  -0.5921070  -0.0926085
  -0.1425655   0.0418408   0.3311736   0.1278020  -0.2064708  -0.2117761
   0.8595785   1.0281140   0.3260489  -0.0799582   0.1508589   0.3505305
  -0.6612551   0.9652330  -0.2938960   1.3819063  -1.1906852   1.7469405
  -0.0699001   0.0073624   0.0676219  -0.2409840  -0.2168682   0.8129723
   0.3255589  -0.3489384   0.8611815   0.2486344  -0.3040202  -0.0203678
   1.1148082  -0.1094518   0.5145472  -0.5555310   0.2951584   0.4825279
  -0.1070266  -0.2100057   0.1834456  -0.4180418   0.2580090   0.8436409
   0.4149306  -0.0337252  -0.6057043  -0.1224422   0.2034406  -0.1557429
  -1.8565175   1.1574371   0.3326007   0.8029223  -1.2133325   0.0435071
   0.0108271   0.1078366   0.4050709   0.6645969  -0.0136188   0.4630668
  -0.5421922   1.2472713  -0.2353392   0.0045824  -0.0927751  -0.2016038
  -0.5531274   0.5837501  -0.4241349   0.8795583   0.3552957   0.2913063
   0.2006863  -0.0105010   0.0407831   0.1116978  -0.6755531   0.6863285
   0.0688790  -0.0054535  -0.3045800   0.0477311  -0.5145037   0.1113260
  -1.3969058   0.4004515   0.3103240  -1.0561637   0.4065235   1.3123182
   0.2748307   0.2912129   0.1366501   0.6947860   0.3480595  -0.2896242
  -0.3356441   0.2842651  -0.1175138   0.2239013   0.1376590   0.3849496
   0.5514834   1.6790392   0.9603785  -0.5945618   0.0168703  -0.1442489
  -0.2889055   0.3499185  -0.0779007  -0.7003083  -1.0917269   0.7302013
   0.8115000  -0.7678674  -0.4276367  -0.2129787  -0.0669710   0.2141805
   0.0178368  -0.1982019   0.5690161  -1.1536771  -1.2769324   0.9426388
  -0.2690353  -0.4234007   0.0965127   1.0110511  -0.7482685   0.3073147
  -0.0532766  -1.4195986  -0.1654236  -0.0032959  -0.1278892  -0.0852979
   0.2814495   1.1189949  -0.8024637  -0.2438613  -0.1394260  -0.3361376
  -0.0985677   0.2133034   0.0570486  -0.0139354  -0.4612215  -0.2387292
  -0.1013785   0.8659176   1.1402053   0.0593616  -0.1079933  -0.0954491
  -1.8030599   1.0817014   0.4313127   0.0716738  -0.6965851   0.0693846
  -0.0719451  -0.2695099   0.1098085   1.5362408  -0.1832163   0.4111334
  -0.3549281   1.0226019  -0.1188917  -0.2025590  -0.0690025   0.4142031
   1.1453214   1.3824501   0.2512155  -0.6555490  -0.8974126   0.4884044
  -0.0718674   0.2470975  -0.0647412   0.4512844   0.0246866  -1.1271518
  -0.5456382   0.3473058   0.2178222   0.0259985   0.0254406  -0.0837768
  -0.5755735   0.4059071  -0.0062908   0.4007541  -0.3429059   1.4656917
   0.5280533  -0.0516264   0.3505880   0.7512158  -0.6635009  -0.4471005
   0.5539772   0.9924432   1.1985460  -0.1144776   0.2246471  -0.2991786
  -1.0502780   0.3158254   0.7770173   1.6429692  -0.2644079  -1.2071012
   0.0887188   0.0156380   0.2550596  -0.8972698   0.0421213   0.5598393
   0.0934318   1.2127754   0.2359223  -0.0285062  -0.1552320   0.1196143
  -0.0939898  -1.1703267   1.7066417   0.9431872   0.9834198   0.6857501
  -0.2986282  -0.1573411   0.2599928   0.7495498  -0.1252723   1.0766502
   0.9274882   0.7368474  -0.0266640  -0.0304113  -0.2595657  -0.2677677
   0.0329629  -1.5507090  -0.3047914  -0.3753591   1.2935147  -0.4168278
  -0.1141557   0.2075069   0.0374271   1.0755260  -0.7882903  -0.9685167
  -1.1364246   0.4449791   0.1527446  -0.0156019  -0.3397551   0.1205906
  -1.3057331  -0.1007439  -0.7873297   0.2043622  -0.6005417  -0.8174798
   0.2875285   0.0820526   0.0741182   0.1379129   0.1412051   0.6557957
   0.2457025   1.6385312  -0.1445321   0.0603017  -0.2157446   0.1538545
   0.3462168  -0.3784465   0.6659358  -0.5264869  -0.6589264  -0.7930768
  -0.0214861  -0.1167004  -0.0363132  -0.0105192  -0.1470275  -0.2512695
  -0.1196094  -0.2894883   0.6760481   0.1239974  -0.2322604   0.0416234
  -0.0259941   0.0052362   0.3503506  -0.8238726  -0.0361256  -0.1081119
  -0.3196771  -0.2184020   0.0835951   0.3421758   0.7045964  -0.4801047
  -0.3714649  -1.0302601  -0.1155765   0.0252644  -0.0258108   0.3287962
  -0.2512105   0.1120268   0.4218019   0.4465789  -0.2970491  -0.7351691
   0.1268295   0.3836157   0.1730045   0.1388058   1.0997113   0.6525916
   0.5009627   0.2722104  -0.0004318  -0.0749404   0.0981505  -0.1079546
   0.1658166   0.1608384   1.5498861  -0.1636349   1.0717485   0.3355453
  -0.3546589   0.2761441   0.0687456  -0.3402189  -2.2970869   1.5802096
  -0.5607771  -0.1355033   0.7852185  -0.0390750  -0.0223418  -0.0318712
   0.3764925  -0.0005436  -0.9100665  -0.1902445  -2.0684074  -0.2878162
   0.1024502  -0.0092253  -0.0499183  -0.6498070  -0.3194686  -1.8103022
  -0.7459253  -0.5162604   0.2211252  -0.1607735  -0.1186856  -0.1170708
  -0.7164604  -0.0767203   0.2581170  -0.4295959   0.6340101   0.4136459
  -0.3889364   0.0505891   0.3289610   0.0488888  -0.7031923  -0.1552753
  -1.5177346  -0.8493607  -0.6842856  -0.0705733   0.4195042  -0.1572928
   0.0630861  -1.2298107   0.2169878  -2.4814698  -0.1307973   0.7150717
  -0.0261446  -0.2126883   0.1745501  -1.0814788  -0.2398491   1.4415866
  -0.3316418  -0.6583172  -0.4015800  -0.2976904   0.1499970  -0.1780299
   0.3443972  -1.0546125  -0.5619908   0.4693734   0.2063164  -1.5153097
  -0.3991821  -0.1109799   0.1168282  -1.8565019  -0.3658647   0.5248580
  -1.4534242  -0.1930769   0.2979770  -0.0511420   0.1915310   0.0478066
   1.3683055   1.0532986   2.2218417  -0.2261089   0.0764610   1.3036741
   0.1914482  -0.2972081  -0.0896830  -0.2537815  -0.2935659   1.9027322
   1.1579002   1.5177389  -0.0499471  -0.1177843  -0.0808351  -0.0959214
   0.5650108   0.3120948   0.5172779   1.3374067  -1.1898045  -0.1964752
   0.0902754   0.3082968  -0.2599536  -0.0186874  -0.5393814  -0.4731874
   0.1037652  -0.9217741  -0.5475132   0.0252639   0.3458273  -0.0111442
  -0.3488167   1.1315169  -0.7640645  -0.6050265   0.5961549  -0.0511705
  -0.2229919  -0.1615966  -0.1253825   0.8099724  -0.4758744   0.8293814
  -0.6543921  -0.6428648  -0.0586509  -0.2017286  -0.0026804   0.0244177
  -0.3537924   1.3999739   0.4577642   0.7302565  -0.6513276  -0.8989585
  -0.1473907   0.0545953   0.3110280  -0.1114435   0.4159510   0.4827778
   0.3322450  -0.1218551   1.9767374  -0.0562746   0.2193671  -0.3796314
  -0.4784208  -0.5955111   0.2236514  -0.6511998  -1.5116020   0.1053025
  -0.1025546  -0.0797449  -0.2238153   0.5699827   1.0141454   0.0442656
  -0.8768725  -0.4275183   0.6764878   0.3442845  -0.1234042   0.1235594
  -0.6616967   1.1279508  -0.5148719   1.4237813   0.1616452  -0.1978231
  -0.0290197   0.1062181   0.0432925   0.8421660   0.4482242   0.4077699
   0.0130621   0.7231787   0.3688194  -0.1673036  -0.1194512  -0.1958921
  -0.1925981   0.3931259  -0.2716261  -0.1766467  -0.1573534  -0.8551270
   0.2806848  -0.4040609  -0.2035828  -0.6661361   0.7471174   0.4802952
   0.8700152  -0.3702988   0.7747536  -0.1685880   0.0025142   0.2043568
  -1.7836055   0.1171989  -0.5190823  -0.3006749  -0.3548808  -1.0033078
   0.1505318   0.0191065   0.1333313  -0.5231300  -1.0964301   0.0592507
  -1.1017010   0.1900842   0.3034830   0.1026393   0.0870104  -0.0163727
  -0.6847333   0.1192602   0.1427556  -0.4483344  -0.8300951   0.0850391
   0.4618853   0.0315557   0.1655814  -0.6328813  -0.1863581   0.9699198
   0.3613824  -0.4730149   0.8670930  -0.0281261  -0.0574624  -0.2982836
  -0.3141691   1.4920059  -0.2320462   0.2453053   2.0351947   0.3373892
   0.0879631   0.2868543   0.0571807  -0.1147008  -0.1038997  -0.1133360
   0.0704600  -0.1447962  -0.1614925  -0.1185980  -0.2149953  -0.2767418
  -0.1656241  -1.1694706  -0.6548708  -0.0261909   0.0336491   1.5701403
  -0.2292399   0.0134416  -0.1752341   0.0159349  -0.6721405  -0.2577208
   0.7274612  -0.4137323  -0.4476193   0.0657239  -0.0236663   0.0265805
  -0.9924439  -1.9420074   0.6025562   1.1617832   0.5777778   0.9188139
   0.1423954   0.2292258   0.3054047   0.7788511  -0.8122582  -1.3179623
  -0.7768705   0.2996107  -0.0008869  -0.1301353   0.0031839   0.2674367
  -0.3044331  -0.1307025  -0.4758189  -0.1485011   0.8062039  -1.5988219
   0.3237529  -0.0042925   0.1900593   0.0084783  -0.4278133  -0.3871385
  -0.1499209   0.1802109   0.9468780  -0.1482032  -0.2299191   0.0723992
   0.7695560   1.1417807   0.0504917   0.6641232  -0.3990583   0.3374897
  -0.0924778  -0.2238300  -0.0805818   0.4173129  -0.7267708   0.4177802
  -1.2522597   0.2441062  -0.0398210   0.1756528   0.2078474   0.0725565
   0.4297695  -0.8440032   0.3825268  -0.7234987  -0.0210112  -0.7753283
  -0.1846820   0.2532180  -0.1403883   0.8341040  -0.0056480   0.8170321
   0.3365193  -0.7018670  -0.2155369  -0.0187421   0.1563419   0.1199259
   0.9803714  -0.0319733  -0.0742894  -0.3863167   0.1497510   0.0472677
  -0.1311512   0.1676240   0.1503610   0.9353926  -0.4562032  -0.9104139
   0.7712018  -0.0325134   0.9035048   0.1420446  -0.2917352   0.1522820
   0.6240159   0.7665281   0.0413380   0.0307149  -0.0831089  -0.2647263
   0.0453484  -0.1671840  -0.0598677  -0.2409493   0.3151093   1.1639483
  -1.3555424  -0.2951888   0.5848943   0.4029143   0.0144369  -0.1721773
   0.1396811   1.4669398   0.0980213   0.5494099  -0.1584754   0.4736757
  -0.2068849  -0.6108990  -0.0017164  -1.6650404  -0.7382654  -0.1647907
  -0.2099685   0.4679813   1.5196005  -0.0878363  -0.1453523  -0.0691701
  -1.4831627   0.9851327   1.6919011   0.2865704  -0.0554429  -0.0562593
   0.2736979  -0.1710930   0.1875034   0.7425714   0.8412517  -0.0389829
  -1.0210493   0.0351136   0.1064285  -0.1867411  -0.0416067  -0.2283351
   0.4659016   0.3412008   0.1019802  -0.9038283  -0.6764109  -0.1201037
  -0.2503091   0.0694307   0.0484327   0.5522284  -0.2373172  -0.1630024
   0.4537842   0.8691597  -1.2785754  -0.1310288  -0.1340234  -0.1601064
  -0.5366035  -0.1723149   0.4672802  -0.8656591  -1.4948482  -0.8854373
  -0.2640336  -0.0944563  -0.3965546   0.2738818  -0.0355303  -0.1924706
  -0.3995195   0.8476405  -0.3269182   0.1162268  -0.0424020   0.4153639
  -0.2936357  -0.9010500  -0.5818596  -0.4997722   0.3230464   0.2322050
  -0.0455298  -0.1289260  -0.1739847   0.2622804   0.2772275   0.6103485
   0.3545070   0.2319635  -0.4554658   0.0395420  -0.0326801  -0.1021564
  -0.2131095  -0.7769553   0.3396967  -1.4848025  -1.6256062  -0.0209739
   0.2041743  -0.2002392   0.1355353  -0.8433708   0.3557986  -0.1694573
  -0.3523507  -0.1976199  -0.3643744   0.2747044  -0.0410709   0.0941457
  -0.6564834   0.7060778   0.6883080   1.0252858   0.0859127  -1.1500788
   0.1033946   0.1254729  -0.0069128   0.2724177  -0.2369364  -0.5120129
   0.7237641  -0.6598860  -0.6962744  -0.2060294   0.1441848   0.0485381
  -0.4300230   0.1421721  -0.1408593  -0.6457900   0.7719440   1.0914935
   0.3617873  -0.0117357   0.3095192  -0.6816926   1.2847049   0.2639199
   1.1521490   0.2389730   0.0526810   0.1506536  -0.1103736  -0.0901873
   0.3468708  -0.1111109   0.6765828   0.1191923  -1.6470466  -0.1033007
   0.0407679  -0.1186834   0.1917073  -0.3241628  -0.1676291  -1.0797202
  -0.4939209   0.2159224  -0.8696434  -0.0003641   0.2337734  -0.1077835
   0.8649683   1.2248414  -1.6167694  -0.1312253   0.3610894  -0.1377877
  -0.1000982   0.2846475   0.0004154  -0.1421366   0.0270962  -0.0577169
  -0.7208238  -1.3923256  -2.4087138  -0.2941614  -0.2661379   0.2260500
   0.7544616   0.5275717   1.1377746   0.8611557  -0.6711603  -1.3829708
   0.4434740  -0.1214542   0.0512814  -0.4149245   0.7556184   0.4455588
  -0.0172941   0.3489294  -0.3010865   0.2912855  -0.1416708  -0.3777770
  -1.7827218   1.1653511  -0.2732773  -1.6091314   0.6749688  -0.4524318
   0.0661467  -0.0277394  -0.4562655  -0.5801423   0.6120892  -0.4309319
   0.3652292   0.9388665   0.3147290  -0.2344222  -0.1510910  -0.1390166
  -0.8001644  -0.6011874  -1.2925673   0.3848154   0.8465091  -0.1626341
   0.1753109  -0.2420559   0.3204131  -0.9434519   1.7077895   0.3983568
   1.2074307  -0.9838099   0.7700276   0.3737923   0.1246433   0.2131230
   0.1758697   1.5195193   1.2987495   1.2677117  -0.7230009  -1.4538135
  -0.3661459  -0.3550559  -0.1673410   0.6327294   0.0337437  -0.7630261
   0.5914256  -0.7312279  -0.6010043   0.3781771   0.2093209   0.0772438
  -0.7862581  -0.1783018   0.3571449   0.0002286  -0.4731371   0.0758578
  -0.2094037   0.1213543   0.0765943   0.7116947   0.1244832  -0.3648523
   0.2125935   0.3025385   0.0682575   0.0639252  -0.1218245   0.0674471
   0.2277947   0.1032349  -0.1028373   0.7049516  -0.0105638  -0.1195642
  -0.1387292   0.0037362   0.3368897  -0.9334265  -0.5575308  -0.2560989
   0.3971631   1.1315151  -0.0059514   0.1836785   0.2700887  -0.1236333
   0.1193149   0.1220392  -1.6209143   0.0714099  -0.2344609   0.4178028
   0.1241941  -0.4892047  -0.1538659   0.2011756   0.3814310  -1.3144460
  -0.6834411  -0.2634805  -1.0402432  -0.1176771  -0.0356755  -0.3375651
   0.6344544  -0.9864980   1.1095381  -0.5776769  -0.1699478   0.3934692
   0.4103028   0.1657202  -0.3141939   1.2666976   1.1860717  -0.8639598
  -1.2227482  -0.9221958  -0.3330028  -0.2387514  -0.0392535   0.0319607
   0.4318299  -0.0093039   0.3742302   0.1888248   0.0757458   0.0079433
  -0.1925718   0.1736408  -0.0284247  -1.0969163  -0.2535964   0.7483095
   0.5560759   0.9495721   0.3730663  -0.0184484   0.1009636  -0.3223626
  -0.3246797   0.1376363   0.1839026   0.5433928  -0.5639193   1.1625377
  -0.1209950   0.1411723  -0.0659529   0.4522655   0.4769557   0.7517812
  -0.0707770   0.3765737   1.0840327  -0.5226977   0.1603454   0.2079478
   0.4980085  -0.8202972  -0.4347676  -0.5588708   0.6316063   0.5542515
  -0.0706133  -0.1644454   0.0690588  -0.6075158   0.0753773   0.5150014
   0.9776905   1.2703612   0.5316520   0.1163453   0.0772681  -0.0125814
  -0.5819063   1.5819572  -1.7377101   0.5100070   0.5249298  -1.1440911
  -0.1675483  -0.0853115   0.2313795  -0.4768586   0.7719349  -1.6824652
  -0.2876947  -0.7692290   0.5519637  -0.0904501  -0.0648671   0.3658864
  -1.5073919  -0.6541263  -0.0173908  -0.7245488   0.4052427  -0.7320684
   0.1633645  -0.0556956   0.1581218   0.7982965   0.9806688  -0.7162421
   0.8242320  -0.7656470  -0.2589922   0.0609066   0.2358095  -0.0999200
  -0.8332613  -0.7840513   0.4955985  -0.6692377  -0.7491586   0.0337370
   0.0235676   0.2085864   0.0470853   1.5006003   0.3982974   0.0083127
   0.6069568   0.6484719   0.5666738  -0.2893404   0.1030056   0.0016867
  -0.8147373   0.1126402  -0.6965376  -0.6325565  -0.5272856   0.1483788
  -0.3028527  -0.4233887  -0.1368899   0.4969607   0.0041718   0.9944580
   0.0388183  -0.4200370  -0.5482477   0.3261872  -0.1267375  -0.1126175
  -0.7747666  -1.0687980  -0.5224328  -0.2112663  -0.1462034   0.8378645
  -0.0863698  -0.0438942   0.0784198   1.1095782  -2.1497412  -0.6534634
  -0.0127893  -1.0675419  -0.7895285   0.1272285   0.2909736  -0.0991433
   0.3876528   0.4518389   0.5315085  -0.6837747   0.1657893  -1.0768607
   0.1529520   0.2879315  -0.0817805   1.6802406  -1.2760745   0.0252932
  -0.1446354   0.6739030  -0.0579615  -0.0811078  -0.1085917   0.0237413
  -0.1241717  -0.1603713  -1.2788321  -1.1848147   0.3133545  -0.0705539
   0.0290941   0.0704395   0.2690097  -1.0427106   0.9918469   0.3635703
   1.4421276  -0.5459859   0.5866704   0.0389775   0.0985484  -0.1338478
  -0.7702258  -0.3488263  -0.3092333  -0.1731201   0.2045007   0.2918239
   0.2917330   0.0212361  -0.1650922   1.0904006   0.2079876   0.2838778
   0.7904337  -1.0713581  -0.5636540   0.0944642   0.1297710   0.0291152
  -1.7893351  -0.3300413  -0.6814689  -0.4985318  -1.0232542  -0.9518805
   0.2392931  -0.1848614   0.1372936  -1.7849444  -0.0886532  -0.2854242
   0.3641594   0.6270674  -0.7726866  -0.0754294  -0.0525127   0.0433393
   0.9624837   0.6440624  -0.1199561  -0.1756161  -0.4803637  -0.6767572
  -0.2111703  -0.1846879   0.1152561  -1.2111150  -0.4646230   0.9899473
  -0.2346168   1.7178786   0.4317322   0.0777975  -0.2256671  -0.0655221
   0.0992426  -0.0790055  -0.5085315   0.7851735  -0.3928771  -0.5634596
   0.3562102   0.0728175  -0.0022847  -0.0580165  -0.2317466   0.4761831
   0.7913084  -0.3709607   0.6004679   0.2599716   0.1683189  -0.1638134
   0.9354310  -0.2431537  -0.7580777   0.8131787   0.0683343  -0.5480972
  -0.1965891   0.0752390   0.1572611   0.2827301   0.4554812   0.1948480
  -0.1813535   0.7484728  -0.5843535  -0.0180556  -0.2852004  -0.0452918
   0.1710931   0.3813451  -0.2361185  -1.3883585   0.6223311  -1.6752867
   0.0107804  -0.1462192  -0.3581739  -0.9095946  -0.0188881   0.8563230
   0.2129626  -0.1652618   1.4890961   0.2485206  -0.3757821  -0.1305775
   0.5898767  -1.3435927   0.9330273  -0.1025265   0.1972594  -0.5734288
   0.1858510  -0.0733380  -0.0619169  -0.1680535  -0.9032506   1.0685121
  -0.8949581  -0.3427573   1.0469189   0.0235299  -0.0971448  -0.4052432
  -1.4920428  -0.0678298   1.0777772  -0.4681463   2.2605724  -0.2113335
   0.1719925  -0.0015140   0.0856079  -1.4341022   0.3550333  -0.1474291
  -0.0874938   0.0415312   0.8587881   0.1640434   0.0726058   0.3837293
   0.3394689   0.0644298  -1.0306553   0.1130413  -0.1948838   0.8822053
  -0.1703207  -0.2855398  -0.1449733  -0.9624318   0.0787205  -0.3504364
   0.6598151   0.0358179  -0.6139083   0.2270019   0.2371156  -0.0928542
   0.4774206  -1.1631007   0.8861043  -0.5958653   0.6540959   0.7064289
  -0.0584051  -0.0614688   0.2204507   0.6417086   0.7558416   0.0032776
   0.3544126  -0.5954846   0.9344818  -0.0640536  -0.2635350  -0.2437729
   0.6669438   1.1005473  -0.0328183  -1.1959970  -0.7419578  -0.5363568
   0.0436010   0.1726264  -0.1808346   0.4674365   1.8470833   0.8349819
  -0.3285468   1.8629890   0.6090958  -0.0101246   0.0092021  -0.0488322
  -0.1838958   1.3483738   0.0402510  -0.0341191   0.3004775  -0.7434227
   0.0323069   0.0122147   0.2278141   0.7437617  -0.3943636  -0.9128583
  -0.6299562  -0.1612779   1.4265021  -0.2415297  -0.5028149   0.0157215
  -0.2515422   0.2246511  -1.3084887  -0.5957988  -0.1871074  -0.3114294
  -0.0408155  -0.0602970  -0.0451603  -1.7288167  -0.0749820   0.5223877
  -2.1018959   0.4668668   0.6694782  -0.2977738   0.1625399   0.0508881
   0.1340152   0.9591263  -0.1083487   0.0912045  -1.0592923   0.1731522
  -0.1514793  -0.0036235   0.1634088  -1.6002233  -0.7600434  -1.4917588
   0.7439537   0.8471589  -0.7510257  -0.0346754  -0.0567459   0.0731601
  -1.3206401   0.7765401   0.8551623   0.1760571   0.6854390   0.3936070
   0.0255683  -0.3542268  -0.1769303   1.0957613   0.3689969   0.0170751
   0.3482976   0.8679964   0.3867076   0.1300197   0.1439239   0.2990220
   0.0540560  -0.0563236   1.7835689   0.3068792  -0.6774282   0.2987057
  -0.0147242  -0.1192833   0.0024561   0.5017631   1.8505447  -1.3837549
   0.3475180   0.6692217   0.5113776  -0.2111146  -0.2825165   0.1826228
  -0.2855519   0.0651173   1.8869720   0.2574223  -0.3975507  -0.3423545
  -0.3733449   0.3127469   0.2267117  -0.7960418  -0.4229595  -0.4365415
   0.8496233   0.0387092  -0.6128773  -0.0139203   0.0227951   0.1156960
   1.0482785   0.9693567   0.0599958   1.1837558   0.6471801  -0.2572575
   0.2913168   0.1435646  -0.0191160   1.1857714   0.6426428   0.5155407
   0.1043506  -0.5830142  -1.3261622   0.1318479   0.0607062  -0.2278577
  -0.4235240   0.7466368  -0.2966307   0.1289003   0.9015307  -0.4248952
  -0.0487473  -0.1114747  -0.0374820  -0.5125620   1.6826302   0.8077754
  -0.2226841   0.0086202  -0.1745664   0.0674417  -0.0437498  -0.0294031
   0.1446727  -0.0152229   1.0693827   0.4882759   0.9644894   1.4930204
   0.0036185  -0.2537163   0.4014287  -0.5448370  -0.7060303  -0.3346341
   0.3098357  -0.2086487  -0.9174647   0.1306810   0.0600937   0.0702264
  -0.2254633   0.1428721  -0.2540769   0.9966137   1.1067632  -0.5258265
  -0.1838583  -0.1838925  -0.1926301  -0.4937336   0.2269386   0.1732453
   0.8584121  -0.0491061  -0.4522728   0.2364641  -0.0965485   0.1086667
   1.1113017  -1.4724272  -0.5676588   0.3235897  -0.7319013   0.5136057
   0.0411853   0.1001012   0.0359876  -0.7963721  -0.1340637   1.0856368
  -0.5507043  -0.5520747   0.2309713  -0.0593217  -0.2602007  -0.2111108
  -1.0389314  -0.1847103  -0.2976382   0.3778461  -0.3211275   1.3567315
  -0.2240398  -0.0259953  -0.0036514  -0.4604501   0.9392265   0.2605377
   0.1987479  -1.3494754  -0.7489609   0.1149682  -0.0299986   0.2119957
   1.0947773  -0.0065477  -0.6469273  -1.5331697  -0.1951066   0.3774942
  -0.2039598  -0.0718495  -0.0973002  -0.1669190  -0.3953427   0.3505959
   0.3689926   0.1938580  -0.0083443   0.2801324  -0.1682174  -0.0046261
  -0.2581503   0.2552375  -1.4036565   0.1882047   0.9394309   0.2507447
  -0.0245380   0.0444851   0.0600313  -1.1589437  -0.2262690  -1.0734914
  -0.5036658   0.0944075  -0.8326284  -0.1186361   0.0038099  -0.2578022
   0.7857746   0.4639644   0.5257103  -0.2943289   0.4667847   0.5882741
  -0.3927243   0.3540422   0.0612544   0.3237872   0.5505769   1.6371793
   0.8419477   1.0861997   0.1666098   0.0746619   0.1632658  -0.1112892
  -0.1510216  -0.3994405   1.3098426  -0.5002158   0.7612150   0.0873042
   0.1596003  -0.0460136   0.0353087   0.1989323   0.9926913   0.1086276
  -0.3019141  -0.1072847  -0.0685225  -0.0908447   0.2058260  -0.0914684
  -0.2755173  -1.7122709  -0.9325632  -0.0628475  -0.3305969  -1.2711274
  -0.0902670  -0.1390269   0.2009270  -0.4530349   0.6503422  -0.1990970
   0.0545680  -0.2375146   0.1409510  -0.1668515  -0.0123722   0.0509058
  -0.2267478  -1.1517076   0.3226239   0.0058382  -0.9257690   0.1791196
   0.1723594   0.1171557  -0.4669923  -1.3820969  -1.1146837   0.7714310
  -0.1202799   0.5432542  -0.6005844  -0.1521008  -0.0410584   0.1759553
   0.2285726  -0.1767863  -0.1766544   1.5162374  -0.1255535   0.6277452
  -0.0371429   0.0265467  -0.1879373  -0.5118570  -0.7425106  -0.5647315
   0.3428719  -1.1099085   0.3116312  -0.0680757   0.1516180   0.1784762
   0.8122304  -0.0513667   1.4627324   0.8201858   0.1156688  -1.2879949
  -0.0971737  -0.0634288  -0.1585125   0.2670742  -0.3778955  -0.0667397
   0.4572519  -1.1139143  -1.1618446  -0.3481268   0.0459260   0.0793682
  -0.1407873   0.4134241   0.4417697  -0.1980830   0.7545258   0.2231909
  -0.1342013  -0.2073064  -0.1582118  -0.3326616  -0.2784871   0.3635111
  -0.3852985   0.5825167   0.5850633  -0.2854688  -0.1573755   0.1375260
  -0.0142205   0.0808419   0.1457109  -1.2232434  -0.2665648   0.2838723
   0.1377877   0.1845585  -0.2656842   0.7386225  -0.9442716  -0.2479487
  -0.0230912   0.0164092  -0.6758666  -0.1111010  -0.0944546   0.1501100
  -0.6294459   0.8655880  -1.0384862   0.7758640   0.4771508  -0.0822655
  -0.3157876  -0.0491809  -0.1684873  -1.4950393   0.7254439  -0.3228660
  -1.0136778   0.4813549   0.2401745  -0.0992966   0.0744543  -0.0923116
  -0.1452483  -1.3726368  -1.0806180  -1.0366154   1.6706577  -0.9441523
   0.1451099  -0.0757390   0.0107039  -0.5647546  -0.9728561   0.0022280
   0.1594835   2.2784201   0.8391819  -0.0591401  -0.3225472   0.0010089
   0.7159464   0.7666772   0.4441755  -0.1167709   1.1448220   0.3319994
  -0.1674640   0.1530996   0.1654099  -1.5626252  -0.8497666   0.3911055
  -0.0726419  -0.4633262  -0.2757039   0.0471545   0.1153947   0.1812006
   0.0354039  -0.3136571   1.3292568   0.8332411  -0.0720944  -0.6403550
  -0.2429306   0.0649971  -0.0020122  -0.3482933   0.9542631   1.2012237
  -1.0329577   0.0236738   0.4234956  -0.0290794   0.1640717  -0.1116049
  -0.4410166  -0.1873885   0.5440965  -0.4590513   0.1023512  -0.4007750
  -0.0577085  -0.3939311   0.1576726   0.1276699  -0.0404701   0.5687688
  -0.3283826   0.0062141  -1.0319940   0.0842003  -0.4045979  -0.3614162
   0.1350080   0.1472204  -0.7947092   1.3051482   0.8694978   1.4022269
   0.0462496   0.3496932   0.3524562  -0.3670356   0.5707299   0.1931582
  -0.1475092  -1.1410300   0.8082846   0.2345877  -0.1215931   0.1560028
  -0.0308219  -0.6534623  -1.0751953   0.2157096  -1.0008665  -0.0425235
  -0.1383983   0.2824690  -0.0334269  -0.9385787  -1.0665656  -0.3851188
   0.1119727   0.5587406   1.2766324  -0.2492166  -0.0381795   0.1868658
  -0.3302467  -0.6292931   0.7641636  -1.0033944   0.7978501  -1.2949310
  -0.2308188  -0.0161741   0.3105502   0.0047217   0.8711441  -0.3706267
   1.6278741  -0.6869380  -1.2607119  -0.3422043   0.1821851   0.2807234
  -0.0074597   1.7516391  -0.0657487  -0.4246330  -0.7313450  -0.6497360
  -0.0430671  -0.0174202  -0.0699282  -0.1125301  -0.1630256   0.0133762
   0.4312035   0.4780081  -0.1840439   0.0437703   0.3305524  -0.0058473
   0.4249083  -0.5170420  -0.2095543  -0.1124663   0.5551086   1.1599118
   0.5053207   0.2394551   0.0475475  -0.5803897   0.1477252  -0.3435795
  -0.7071562   0.2796103  -0.6633593   0.1942288   0.0080744   0.2477986
   0.2077768   0.5963904  -0.0389388   0.3151337   0.4107064  -0.8093524
  -0.0192956   0.2553697  -0.4051569   1.5786333  -1.0938019  -1.3561397
  -1.4524387   0.4147912  -0.5904885  -0.0871027   0.2108531   0.0132877
  -0.5422677   0.5151261   0.5704187   0.5864696  -1.1917349   0.4865648
   0.1906508   0.0126477   0.2098556   0.2480836   0.3833249  -0.4486552
  -1.4333452   0.0743991  -1.1827809  -0.0300415  -0.1949892   0.1476940
   0.1007824  -0.0098859   0.7384953   0.4133358   1.7197621   0.5961024
  -0.3050603  -0.0962881   0.2672729   0.4675007  -0.3398655  -0.1359722
  -0.1984506  -0.3147079  -0.3907972  -0.1636198   0.3695827  -0.1395475
  -0.0015211  -0.4855464  -0.5109100  -0.1757782  -0.0727129  -2.0403128
   0.1098769   0.1174725  -0.2009971   0.1873591  -0.8421414   0.3573536
  -0.6340392   1.2746669   0.6369268  -0.3760569   0.0390153  -0.1041767
   0.2428711   0.1513314   0.0061488   0.3825872   1.7476220   0.6688704
   0.2802801   0.0022322  -0.0513538  -1.1855858   0.3838460  -0.1959615
  -0.4707514  -0.9993586   0.0892727   0.0253502  -0.2053177  -0.0294957
  -0.0754432   0.0102499  -0.3682165  -0.2818894  -1.3640023   0.4575605
   0.1900177  -0.2937739   0.2556325   0.0281837   0.1714064   0.9196937
  -0.4980164  -0.1732619   0.3175010   0.3930040   0.2498063   0.1968751
   0.1324584  -1.3421394   0.0949802   0.6181131  -0.6527683   1.0150332
   0.1859228  -0.1017986   0.0944128   0.2953117  -0.1286272  -0.1695319
  -0.4818742  -0.3545396  -0.6312416   0.2681226   0.4533879  -0.4515746
   0.2590607   0.3540398   0.2490360   0.2735570   2.7011559   0.9533663
  -0.0344503  -0.0787239  -0.3690646  -0.3118587  -0.8043781   0.5698595
   0.3747326  -0.1790919  -0.0574479   0.1796513  -0.0540121  -0.1303702
   1.1726394   0.4118461   0.1448061  -0.7456164  -1.6838854   0.4243457
   0.4809318  -0.2504987  -0.0379020  -0.9008684   1.1097442  -0.5080258
   0.0157143   0.0626638   0.4664498  -0.0232530  -0.1495129   0.0779148
  -0.0154714   1.0278411   0.4114766   1.3581500  -0.3730784  -0.6757187
  -0.0763591   0.2144479   0.1409532   1.7300013  -1.1613428  -0.1904962
  -0.9039515   0.0049855   0.7047862  -0.2078955   0.1151329  -0.3144693
   1.0568775   0.0747697   0.2278826   0.1139786   0.7253880   0.0801410
   0.0256540  -0.4434120  -0.2629615   0.5836487   1.4130717  -0.6007406
  -0.4629391   0.0909379   0.1594735   0.0832804  -0.2702862  -0.3550877
  -1.3967371   0.4478582  -0.6801914  -0.4662387   0.4848576  -0.2166836
  -0.0377045   0.0037688   0.0394636   0.0655575  -0.2524191  -0.6636469
   0.1970610   0.1437318   0.0701998  -0.2521109  -0.0912968  -0.0985038
  -0.9602700   0.2752616   0.9118345   0.1998714   0.0178370  -0.1937425
  -0.0315970   0.1929373  -0.1962815  -0.9600745  -0.7376087   0.9905914
  -1.6736084  -0.5289993   0.1026493  -0.1463928   0.1905282  -0.5069013
  -0.4672312   0.8003648   1.0745915   0.7946630   0.6752914  -1.2673848
  -0.2406860   0.2212109  -0.1216522  -0.4098808   0.3430577   0.6091858
   1.2443122   1.1965884   0.1289488  -0.1949690  -0.0165481  -0.1723385
  -1.2033690   0.7117795  -0.0051908  -0.2963055  -0.4310605  -0.0293834
   0.2874866   0.0222252   0.0094521   0.3365520   0.3029668  -0.7404734
  -0.4679867   0.8686872   0.3038918   0.4111944   0.2564086   0.0695438
  -1.5779292  -0.0231948  -0.4366801  -0.4691329  -0.8207635  -0.0088368
  -0.1736996  -0.2810590  -0.1140411  -0.0057131   0.1193797  -0.7843727
  -0.1858699  -1.7358822  -0.3824597  -0.1588176   0.2241490  -0.1551917
   0.6893686   0.2534947   1.0245549  -0.7499494   0.5264397  -1.0134547
   0.1490353   0.0049027   0.1602044   0.3512880   1.4492979   0.7401936
   0.8461429  -0.5580411   0.8822729  -0.2385273   0.1915948  -0.0872850
  -0.0404184   0.5024164   0.9329364  -0.2681123  -0.7181234  -0.1556260
  -0.1093732   0.1012338  -0.0192715  -0.1869298  -0.7299954  -0.4867161
   1.0767158  -1.5961975   0.1390677  -0.2617013   0.3484460   0.0254629
  -0.4653272  -0.5456572  -1.2345941   0.5962832   0.5760297  -1.0903517
  -0.3025028  -0.1145206  -0.1953855   0.5476236   0.6151949   0.3380943
   1.2028788  -1.5748066   1.0500900  -0.0019128  -0.0845532  -0.2100190
   1.7153842  -0.0219801   1.4934381  -0.2823105  -1.2555454   0.1711331
   0.1156316  -0.0316834  -0.0431338   0.8817367   0.0716146  -0.5694351
  -1.1336056   1.4735606  -0.4063806  -0.0693037  -0.0848780  -0.2191085
  -0.4288288   0.2546051  -1.2310577   0.5574662   0.9978939   1.1620413
  -0.3655292  -0.1979303   0.0113703   0.3090780  -0.5171204   0.0446201
  -0.4881215   0.1723378   1.8756269  -0.1925162  -0.0315544  -0.2364013
   0.3005552  -0.2580157  -0.0814386  -0.2419123   1.1874334  -0.2665782
   0.0057445   0.0158488   0.1948489   0.2286032   1.6679852  -0.8067410
  -0.3450394  -0.2374671  -0.7006365  -0.1865294  -0.0360631   0.0510671
  -1.1425125   0.0721936   0.2861898  -0.0632818   0.1576817  -0.4270165
  -0.3467037   0.1774436  -0.0117482  -0.1923366  -0.1316452   0.7130213
  -0.7603191   0.3367770  -0.0173217   0.1307771   0.3518299  -0.1217295
   0.6101219  -1.2198745   0.1527775  -0.9213185  -1.3333962  -0.8851912
   0.0847465  -0.0303758  -0.0943753   0.4980705   0.3521640   0.9707065
   0.1102002  -0.2037604   0.5213367   0.3425507  -0.2222327   0.1603782
  -0.0146234  -1.3256967  -0.3361494  -0.0883305   0.6169862  -0.4715524
  -0.1518913  -0.2443061   0.1100610   0.7123352  -1.7154700  -0.2827192
   0.5718317  -0.1015911   0.6776332   0.0335782   0.1182945  -0.0420005
   0.9545495  -0.0715981   1.3220321   1.1722779  -0.5282008  -0.8625541
   0.0171338   0.1716955  -0.1755220   1.1448270  -0.0755862  -0.2583059
   1.0116589  -0.3210107  -0.1430896  -0.1614689   0.0998621   0.2218093
   0.4381914   1.5059129  -0.1233372   0.5374914  -0.1466231   0.6737278
  -0.1820792   0.2853692   0.1000810   1.6335451  -0.3782142   0.9136266
  -1.2754847  -0.6162922   0.1531663   0.3143322   0.0484535   0.0113081
  -0.0125349   0.6045046   0.2150508   0.7819028   0.6043097  -0.4296522
   0.0515268  -0.0854929  -0.1510444  -0.6308289  -1.5711139   0.7502185
  -0.6090664  -1.3239434   0.5868343  -0.1680315  -0.1271205   0.3192702
   0.1889736  -0.3624772  -0.3328681  -1.3954933   0.3842114  -0.5324835
   0.1431617  -0.2101225   0.4917695  -0.3599568  -0.3019102   0.9468301
   0.0604205  -0.3495536   1.4023019   0.0050807   0.0902688  -0.2881789
  -0.6791251   0.1374006  -1.2486336  -0.1416623  -0.7171013  -0.3437260
   0.0967446   0.0041750   0.0549567  -0.0063179  -0.9768816  -0.8750075
  -0.2072019  -0.4432206  -0.3472645  -0.1715572  -0.0661290  -0.2357431
  -0.0423613   0.9536168   1.2614533   0.1010520  -0.2144721  -0.3737718
   0.2475405   0.1196507  -0.0516954   0.5645912  -0.1104797  -0.7181739
   0.1064297   0.5246549   0.9734902  -0.0776786   0.3173291  -0.3358658
  -0.5576563  -0.8003115  -1.1983394  -0.1807424   0.4448455  -0.5527923
   0.3472137  -0.0339667  -0.2476558  -0.0082774   1.1287266   0.0720603
   0.1917359   0.6176374  -0.6905671   0.2076943   0.2306144  -0.0362091
   0.0737155  -0.0929508  -0.0153285  -1.5178196   0.0311971  -0.0328130
  -0.1759627  -0.1694734  -0.0202042   0.2689602   1.0452248   0.6752893
   0.2106830   0.1113632  -0.8305979  -0.1560511   0.0130419   0.0049322
  -0.2569534   0.7145217   0.1865722  -1.2668938   0.9564906  -1.1288815
   0.2040282  -0.0514138  -0.0888896   0.0279231  -0.3950068  -0.7910368
   0.5969859  -0.1020363  -0.6274319  -0.4611269  -0.2250157   0.0605904
  -0.5255797   0.1091803  -0.5216871  -1.0036112   0.2211383  -0.8414861
   0.1328693   0.0931803  -0.0471013  -0.7304287  -0.1171133  -0.6337439
   0.1404957   1.1346373   0.8090066  -0.0150599  -0.2286455   0.3356002
   0.0040613   0.5926888  -0.4188111   0.6774335   0.0768951   1.1325430
  -0.2822622   0.0536965   0.0498417   1.4800784  -0.9916908   1.1807336
  -0.3685207   1.1475820   0.0721132  -0.1211483   0.0411761  -0.2334989
  -1.1953893   0.1546612   0.3007107  -0.0191376   0.4330089  -0.3849444
  -0.0704018  -0.1245905   0.1200977   0.1824136  -0.6317447  -1.0779537
  -1.0149454  -0.3580394   0.9500596   0.1849992  -0.0517614  -0.0086736
  -0.0029652   0.0567730  -0.2078224   0.6163312   0.5930368  -1.1445594
   0.0394378  -0.0484618  -0.1859813  -1.4060530   0.1149654  -0.0704513
   0.5163513   0.5773310  -0.0895722   0.1167402  -0.0675252   0.0950068
  -0.6158392  -0.7020062   0.0387850  -0.1735564   0.4429905   0.0332169
  -0.1327691   0.0925380   0.1363703  -0.0688733  -0.7025025  -0.1918806
  -0.3397777   0.2436028  -0.8419745  -0.0674675  -0.0395596   0.1369024
  -0.2299014  -0.9320509   0.6099547  -1.0170466  -0.3081436   1.3913877
   0.2768780  -0.0651946   0.1125207   0.5359850   0.1136268  -1.0060993
  -0.0294061  -0.3372904  -1.1083397   0.1631358   0.1544927   0.1083628
   0.1163289  -0.0040797   0.1708700   0.2989714   0.1698805  -0.3219758
   0.4893183   0.1569755  -0.0503403  -0.0672291  -0.3784010   1.3813613
   0.3087641  -0.5264870  -0.5201385   0.0009923  -0.0829128   0.0116535
  -1.6434120  -0.7911508  -0.7073621   1.2196061  -0.2415970   1.0981817
   0.2045685  -0.0714868  -0.0558766   0.0258127  -0.1281930   0.5366009
  -0.9397712   0.8515387  -1.1583206   0.3127507   0.0646531  -0.0485925
   0.0564610   0.4384938  -0.2006615   0.0982185   0.4071437  -0.5626581
  -0.1723651  -0.1665674  -0.1265804   1.8741551  -0.0976816  -0.3731862
   0.2642629  -1.1226335   0.7840778   0.0737974  -0.1322548   0.0137776
  -0.8240566   0.3934589  -0.0582352  -0.7557164   0.0639422   0.9781974
   0.0873965   0.1112570   0.2747324  -0.1789835  -0.3951429  -0.6122089
  -0.6402712  -0.1310156  -0.0441813   0.1103112  -0.2316008   0.1256821
  -0.3044916  -0.1099076  -0.0276060  -0.9171631   1.0972481   0.7950546
  -0.2079195  -0.3714495  -0.0146950   1.2702825   0.2486736   0.7828527
   0.8992948  -0.6875969  -1.2156201   0.0488150  -0.3009106   0.2038531
   0.7117731  -0.3947834   0.3295963  -0.3053653  -0.7629775  -0.4159712
   0.1908002   0.1079633  -0.0699635   0.1438514   1.1787690   0.6421993
  -0.3258612  -0.5821656   1.0162809  -0.0132407   0.0190180  -0.1846320
  -0.3289920  -0.2250008   1.3050627  -0.0847898  -1.0083676  -1.2385887
  -0.1060742   0.1106776   0.1931864  -0.1011236  -0.3276633  -0.4770476
   0.5062005  -0.5213896  -0.7871267   0.0169527   0.1358605   0.2446520
  -0.9769914  -0.3884906   0.7014120  -0.3276784  -0.8960320   0.6010890
   0.2112781   0.2675941   0.1937936   0.5105299  -1.8729348   1.0593994
   0.3104068   1.1274735  -0.0712681   0.3010837  -0.1180496  -0.3157815
   0.0028091   0.1252219  -1.5138441   1.2665932  -0.8939956   0.0629937
   0.1197691   0.2095579  -0.0563570  -0.4811024  -0.3221307  -0.0634817
   0.5943670  -0.1539976  -0.6641496  -0.0072885   0.2191498  -0.3051925
  -1.0995976   1.1064382  -0.4554964  -0.5138592  -0.4048544   0.1816812
   0.1632984  -0.0929717   0.0828594  -0.2978939  -0.9939665  -0.8090254
  -1.7094283   0.9980346  -0.6140706  -0.3269416   0.2203421  -0.2051233
   0.4378682  -0.5393554   0.8135113   0.7019216  -0.7745485  -0.1456268
   0.2100719   0.0102047   0.1859318   0.8387966   0.7603514  -0.2031190
   0.4735594  -0.6152722  -0.7010765  -0.2609008   0.5399305   0.0304096
  -0.0803054  -0.5171317   1.5637892   0.3611898  -0.3321832   0.3413257
  -0.1033500   0.1061197   0.0672013  -1.1013450  -0.2973764  -0.4176503
  -1.8007571   0.6368770   0.4864326   0.0093160  -0.1914135   0.1620969
  -0.2475366   0.3273140  -0.7601310  -0.0434815   1.1127076  -0.1316658
  -0.1902781   0.1106862  -0.2073879  -0.3682714  -0.1225979   1.3321318
   1.1263905   0.6707554   0.2869051  -0.2006648   0.2303637  -0.1521925
   0.4361055   0.4202823   0.4093954   0.5055130  -0.9374585  -0.2324851
   0.1518338   0.1062361   0.0049113   0.5648904   0.2086991   0.2968622
  -1.8717505   0.1442903  -0.2006191  -0.4132462  -0.1286071   0.0107290
   0.7467006  -1.0580342   0.7799819   0.0552912  -0.9805461  -0.1112839
   0.0894885  -0.1105030   0.2563076   0.6147442   0.1408648   1.0262498
  -0.7182788  -1.5982313  -0.9490758   0.1525225   0.0812911   0.0970812
   0.2929480   0.3402481   0.8757173   0.8480179   2.8078392   0.5781302
  -0.0478599   0.0216601   0.0386299  -0.7680884   0.1457445  -0.1266412
   1.6898625  -0.2834553  -0.7148458   0.0930433   0.1269229  -0.0565026
   0.2609485  -1.6473273   0.5852363   0.2272793   0.3286577  -1.0099738
  -0.2762700  -0.2612562  -0.1151830   0.1178289  -0.1123242  -0.5413737
  -0.6405502   0.3544945   0.2003688  -0.1732379   0.0283693   0.1342652
  -0.5259663   0.1972471  -0.4799053  -0.8955322   1.8158702  -0.8287837
   0.0575721  -0.1064862   0.1174906   1.4210615  -1.7522684   0.4618224
  -0.1293477   0.1589273  -1.0230857   0.1656659  -0.0158538  -0.0220186
   1.5739611   1.0711871  -0.2258058   0.2672037   0.9657961  -0.4352595
  -0.1036138   0.0439816  -0.1575706   0.3662665   0.5995944   0.2113993
  -0.0227847   0.0247628   0.3218070  -0.1026017   0.1232725   0.1048472
  -0.5424210   0.4300509   1.0079936   0.5805156   0.1825159  -0.6345645
  -0.0028310   0.2127922   0.2279479  -0.8003456   0.7285711  -1.2267232
  -0.5782204  -0.9901802  -0.1770427  -0.1472258   0.1757462  -0.0377007
   0.1332767   0.8850012  -0.6906523  -0.2568264   0.1398226   0.0772105
  -0.1546248   0.3406721  -0.1113916   0.0524430  -0.2027453  -0.8421285
   0.3995290  -1.5187371  -0.4943327  -0.1758785   0.1047924  -0.0255293
   1.5326985   0.1472953   0.1276880   0.1615389   0.1188079  -0.5151953
   0.0131114  -0.0905500   0.0999713   0.1724331   0.3843111  -0.8183497
   0.0923232   0.9810112   0.3941650   0.2397669  -0.0936052   0.1187051
   0.3593405  -1.4772429  -1.0056345  -0.8940604   0.6000616   1.4107084
  -0.1196973  -0.0098493  -0.0784303  -0.3194891   0.4037628   0.1640796
   1.3100615   0.6581009   0.0821701  -0.0337132  -0.3566551  -0.0664982
   0.0866984   1.5180752   0.4230466   0.9136886   0.3854857  -0.2371476
  -0.0527539  -0.3065779   0.0889472  -0.9488126   0.2176135   0.7195926
   0.5118031   1.0638076  -0.9307828  -0.0704834  -0.0915889   0.0945903
  -0.4938313   0.1156363  -0.8870115   1.3785321   0.6409867  -0.2539026
   0.3381153  -0.0831299   0.2986102   0.2953098  -0.8316898   0.2986921
   0.0838035  -1.4244476  -0.8386573   0.0571535  -0.3731938  -0.1527008
  -0.6655137  -0.9132186   0.2364090  -1.3778905  -0.5894622   0.5621514
  -0.2274233   0.1179584   0.0868583   0.7387109  -0.6325097  -1.4674401
  -1.0834104  -0.0039715  -0.2178018  -0.2838892   0.1710277   0.4910361
  -0.9994742  -1.1903586   0.6561224  -0.1648431   0.4711623   0.4589139
  -0.1464781  -0.0815804  -0.0215460   0.3976883  -0.3289411   0.0645033
  -0.0809329  -0.6462567   0.9268470   0.2592669   0.1146415  -0.2110439
  -0.9187496   0.0738477  -1.0364403  -0.8057938   0.5292130  -1.7684047
   0.1539075  -0.0745897  -0.0291420   1.5529968   0.2957775  -1.1880568
  -1.5078568  -0.0516970  -1.5405037   0.1057605  -0.1158454   0.2569259
  -1.0094938   0.0229719   0.4491572  -1.0480468   0.7002220   0.2384933
  -0.2080031   0.1969543  -0.1601235  -0.8128057  -0.1370160   0.6478192
   0.1407108   1.2348903  -1.4163473  -0.4985841  -0.2233125   0.1315878
  -0.5897842   0.9023473  -0.8412018   1.0389547   1.1470639  -0.5680177
   0.1140550   0.1059517  -0.1377828   1.1313268   0.3255187   0.4923409
  -0.1144559   0.1708427  -1.2167993   0.3905164   0.0945701  -0.0995857
  -0.3363239  -0.4048177  -0.3028690  -0.5351932  -0.6074325  -0.0671961
  -0.0093841  -0.2241443   0.1267091   0.9966897  -0.0449077   0.5790080
   0.4443983  -1.2086948  -1.6641865  -0.2592974   0.0307950  -0.0982166
  -0.6878899   0.2857224   0.0124453  -1.0869563   0.1411692   0.8945846
   0.2358193  -0.2864509   0.1532222  -0.2458198  -1.1037797   0.7199379
  -0.5745160  -0.1818528  -0.8312357   0.3117908   0.0848563   0.0990058
  -0.2375471   0.8804975  -0.0224626   0.3292475   0.4799327   0.1076418
   0.3355933   0.3019466  -0.0011135   1.4014893   0.5664304  -0.2490289
  -0.6502415  -0.0463995  -0.4092123  -0.2591531  -0.1255070  -0.1986742
  -0.4479380  -0.1875090   1.3492927  -0.3294772  -0.3246821  -0.8397119
   0.0181844   0.0395818   0.1113664  -0.0320114   0.0085405  -0.5937847
  -1.2731461  -0.0066459  -0.0240818  -0.0926460   0.0461482   0.0665052
  -0.6136185   1.6532181   0.3697206  -1.0595793  -0.3978150  -0.1434025
   0.0072399   0.0644242   0.2488130   0.6152180  -1.3860189   0.2599361
  -0.2423871   1.7180373  -0.8024777   0.0843105  -0.1520483  -0.0523388
  -0.2219205  -1.3254438   0.6216702   0.0860610  -0.6420416   0.8585863
  -0.1174930  -0.2053153   0.0522541   0.9530236   0.9099368  -0.7634234
   0.2177829   0.7909979  -0.0066610   0.3035826   0.0773271  -0.1105810
  -0.9154529  -0.7363686  -0.1271671  -0.9681298  -0.7776014  -0.9669639
  -0.1470259  -0.1178613  -0.0157376  -0.1917583  -0.1247398  -1.2352304
  -1.2711900   0.0587591   1.9786304   0.2446140   0.0753363   0.0545044
  -0.1648467  -0.3029483  -0.5889397  -0.2684487   0.6750547   0.4699042
   0.3005755   0.0352208  -0.0519856   0.3120936   0.6537153   0.8071974
   0.8141794  -2.2943439   0.0392694   0.0609698  -0.0210586   0.0069862
   0.1197024   0.0102780  -2.2271515  -0.9569032  -0.9443138   1.1755653
   0.1211634  -0.1791250  -0.0433619   0.6894052  -0.2244635  -0.6489636
  -0.1773115  -0.1465119  -0.6929661   0.1067438  -0.0433686   0.1917728
  -0.5592829  -0.3969416  -0.3214558   0.0507437   0.1496476  -1.7988919
   0.1543330  -0.0016110   0.0051373  -1.1116012   0.2544104  -0.5887811
  -1.0343002  -0.1487711   1.7518210  -0.1655785  -0.1538767  -0.0498718
  -1.3323830  -0.8869677   0.8290113   0.3466653   0.3243370   0.1565198
   0.0741398  -0.0335003   0.1476176   1.1601595  -0.8372352  -0.3866305
   0.9530670  -0.3348293   0.2139316  -0.1714013   0.2662936  -0.1566777
   0.6611543  -0.7265896  -0.9044440  -0.0679941  -0.5532400   1.1554122
   0.0087810   0.1735964  -0.1753695  -0.9121041  -0.4913736   0.3658476
   1.1810686   1.4413780  -1.3682892  -0.2041215   0.0024176   0.2372392
  -0.9094031  -0.0497099  -1.4314100  -1.5143999  -0.5236760   0.3722561
   0.1574537  -0.1878217  -0.3257647  -0.1722298   0.0931176  -1.0351862
  -0.1634937  -0.3133534  -1.3178678   0.2564816  -0.0989873  -0.3369386
   0.6881614  -0.5442796   0.6825257   0.5270538  -1.2512428   0.1041018
   0.1951147   0.1707950   0.0249961   0.2115807   0.5042272  -1.5473938
  -1.4268678   0.5463902   0.9629269   0.0133528  -0.2139360   0.1505103
  -0.3217950   0.1961912   0.8967204  -0.2705450  -1.0495403  -0.5268768
  -0.1997459  -0.1956865   0.1327326  -1.8951503  -1.6971790  -0.5242466
  -1.5582546   0.1212560  -0.2661118   0.0081546   0.0060299  -0.4263808
   0.4482228   0.0385567  -0.2200742  -0.7477169   0.4996705  -0.1101820
  -0.1276891   0.1926783   0.0148367  -1.1599993  -0.4003987  -0.3240711
   0.0114992   0.1211382   0.2553147   0.2898651  -0.1123296   0.0025119
   0.8375150  -0.0418993   0.2336662   0.9089467   0.3424374  -0.2297443
  -0.0107143  -0.2777663  -0.3687871   0.7714458  -0.4007758  -0.7587430
  -0.0637816   0.0274733   0.2882544  -0.0854368  -0.2166546  -0.2604684
  -0.4231131   1.2060317  -0.2891715   0.6822019   1.0030580   0.3961638
  -0.1243259   0.1864524   0.0346792   1.5735637   0.3403758   1.1622699
   0.6979686   0.3776124   1.0716506   0.0884823  -0.1556632   0.1044211
  -0.4657077  -2.0168972  -0.8074380   0.0738549  -0.4567860  -0.5905809
   0.0950337   0.1838946  -0.0340795  -0.3528936   0.0176233  -0.1240678
  -1.1901634  -0.5618604   0.0880038  -0.3172701   0.2194973   0.1378805
   0.2297036  -0.0541329  -0.9364111  -0.6121408   0.5642496   1.1612423
  -0.2759879  -0.0433627   0.0147273   1.1749082   1.2051192   0.0916905
   0.0655955   1.9102847  -0.9089975   0.0276231  -0.0584398   0.0910685
  -0.0235342   0.8940417   1.2686368  -1.1317370   0.5685474   0.0713903
   0.2482303  -0.2208216  -0.1287868   0.1839566  -0.2188224  -0.2503620
   0.8342615   0.5382786  -0.6302308   0.1113706   0.0374609   0.0426838
   0.4514884   0.3622486  -1.3369468   0.5918938  -0.0200294  -0.8671368
  -0.1003974   0.1549560  -0.1506732   0.2399603   0.8070291  -0.7344195
   0.3242564   0.1955002   0.3385123  -0.0535390   0.1315116  -0.0279347
   1.0880811   1.1937076   0.2792588   0.0863285   1.1607471  -1.2769141
  -0.0241573  -0.0696830  -0.2240963  -0.8032581  -1.0635154   0.6707735
  -0.5542691   0.1362502   0.1528574   0.1789554  -0.2215816  -0.2627729
   0.0669018  -0.7851601  -0.8429029   0.6679441  -0.4805912   1.4293753
  -0.0411087   0.0313856   0.1436586   0.1846958   0.7727051   0.6546613
  -0.0077792   1.0494076  -0.5889834   0.2016741  -0.2538423   0.1201645
   0.2514523  -2.1199160  -0.8840621  -0.2924442   0.0407936  -1.0795458
  -0.1874883  -0.0395145  -0.2184379  -0.7172644  -2.1036175   0.8922005
   0.3156472  -0.2358423  -1.5292537  -0.0195091  -0.1163014   0.1551951
   0.0109720  -0.7978451   0.3284079  -0.5389112   0.6929807  -0.7352099
  -0.0569070  -0.1338589   0.2372804  -1.5111894   1.1340949   0.8720363
  -0.6562581   0.7587451  -0.0419259   0.4072745  -0.0079095  -0.3177911
  -0.8193713  -0.3592608  -0.0510190   0.6108186  -0.9298851   0.1304596
  -0.0866410  -0.0107342   0.3103765  -1.7151619  -1.4159760   0.0136528
  -1.6191841   1.0959345  -0.6098070  -0.1727480  -0.0710982  -0.0103572
  -0.3474014  -0.6809797  -0.1493158  -0.2857697   0.4649336  -0.4614513
  -0.1053657   0.2648269   0.2145535  -1.0860634   0.2825052  -0.9149908
  -1.3540405  -0.0078234   0.3429210   0.1444692   0.1703843  -0.0407328
   0.7423074  -0.8314034  -1.0358873   0.2576920   0.9700592   0.5614965
   0.1230611   0.2156686   0.3262202  -0.1410238   1.1680783   0.1339559
   0.9166951  -0.7593479  -0.6309876   0.0437583  -0.1978907   0.0496545
   0.3107209  -1.0955599  -0.9480708  -0.8150382  -1.2618254  -0.3411030
   0.0321589   0.1939174   0.0097741  -1.6878887  -1.3104798   0.6421727
  -0.3626061  -0.4147375  -0.3850692  -0.0480259  -0.1212914   0.1055965
  -0.0966151   0.7235976   0.8859661   0.2884622   0.6220721  -0.1213530
  -0.2662023   0.2517100   0.2192845  -0.5548218   0.0552349  -0.6237057
   0.0669741  -0.5312469  -0.9817021  -0.0532437  -0.0611463  -0.2233854
   1.5349439  -0.2232588  -0.2476097  -0.2566585   1.5700557  -0.4056468
   0.0572173   0.5394699   0.0258102   0.1137594  -0.6275310   0.2908348
   0.1991294   0.6375788   0.3993257   0.0858599  -0.1964991   0.0785637
  -1.7093943   1.0391911   0.1053212  -0.6888881   0.4345151  -0.1750686
   0.1135415  -0.0471204  -0.0128568  -0.8833364  -0.8746420  -0.2381586
  -0.2028489   0.9621500   0.4664550   0.2751025   0.0727297   0.1641401
   0.4866665  -0.2337725  -1.2889822   0.2701822  -1.0690404   1.4843822
   0.1524989  -0.0719668   0.1021998  -0.6542016  -0.4719105   0.5989049
   0.4219199   1.0392544   0.3252559  -0.0680943   0.0478252  -0.0331100
   0.9203947   0.4775785   0.2815833   0.3605404  -3.0645289  -0.9529028
   0.0126460  -0.0461308   0.1209381   1.3337686  -1.7857340  -0.1212884
   0.3968823  -0.2001626   0.2860232   0.0109748   0.1173411  -0.1228867
   1.2350664   1.6010547   0.1145508   0.7748413   0.5171820  -1.2346714
   0.2750989   0.0730467  -0.0528652  -0.9073338   0.3884160  -0.7117721
   0.8395561   1.2150754   0.3169714   0.0406327  -0.1878493  -0.2582523
  -0.6428995  -0.1159013   0.6215557   0.9257573  -0.9211242   1.1276766
  -0.0238165  -0.0484820   0.1887606   0.2287262   0.2895678  -0.1024416
   1.3805252  -1.2038568   0.2374474  -0.0345679  -0.0732287   0.0913860
   0.4008518   0.1242832   0.8089925  -0.7504566   0.6882590  -0.7542905
   0.0310604  -0.3490391   0.1231710   0.9232783   2.0943794  -0.1421477
  -0.0044911   0.5506275   1.3879529   0.1814303  -0.2087893   0.0111830
   1.4961989  -0.1093849   0.8715312   0.7566054   0.8663372  -0.0015845
  -0.4342828   0.0479312  -0.0329605  -1.1472246   0.0749326   0.7849546
   0.5062555  -0.0474011   0.0152944  -0.0451424  -0.1267075  -0.0331384
   1.1411724  -0.2984169  -1.4008968  -0.3943147  -0.3202847   1.7836908
  -0.3655826   0.1186851   0.1079418   0.0971600  -0.8225219   0.5523513
  -0.2772094   1.1200696  -1.5478838  -0.4773798   0.1551777   0.1883538
  -0.1832528  -0.7156496  -0.1704414  -0.0634079   0.4068662  -0.3352596
  -0.1026578  -0.1236805  -0.1301418  -0.1699848   0.8899707  -1.1697602
  -0.4432123   0.1453511  -0.9025172  -0.1202821   0.0600296   0.1692291
  -0.3821868  -0.0982741  -0.0576855   0.7861393  -0.1296706   0.2865789
  -0.0258768  -0.4200064   0.3497145   0.6615077  -0.0754659   0.7415351
  -0.8676982   0.6764745  -0.6811707   0.1257000  -0.3569795   0.0349019
  -0.3011995  -0.7619186   1.0022390  -1.9520754  -0.7824470   0.0264216
   0.2290995   0.1197731   0.3350580  -0.9354274   0.5884556   0.1536995
   1.2968691  -0.7148240   0.0846059  -0.0751176   0.0834622  -0.0611486
  -0.9679232  -0.7113618   0.0028149  -0.1098895   0.4738130   0.0465971
   0.3477430   0.2302064  -0.1268510  -0.6163800   1.3429061  -1.8181034
   0.0889709  -0.5655212  -0.8106315  -0.0004476  -0.0293235   0.1824442
  -0.0396945   0.1007309   1.3631531  -0.2363007   1.5137608  -1.4393256
   0.3237715  -0.1370624  -0.0398474   0.2383984  -0.5755083   0.1027208
  -0.0245805   0.4529704  -0.1696299  -0.0419879   0.0071961  -0.0951361
   0.9069096   0.8930858   0.0261842   0.2972554   0.5916678   0.4132250
   0.1074838  -0.0554497  -0.0177307  -0.1691149   0.5288317   0.2686896
  -0.3850812   0.1914569  -0.7464979  -0.3280096   0.0326060   0.1770035
   0.4463793  -0.2669846   0.5933665  -0.3327871  -0.5287400  -0.6580919
  -0.3203286   0.0968841  -0.2424275   1.4961331  -0.5101796   0.0807314
  -0.4871580   0.2871985   0.5134392  -0.2899399   0.5453695   0.5144377
   0.5177218  -0.7842267   0.1647402   0.2520278   0.5410835   0.9212679
   0.2543382  -0.1756050  -0.2128165   0.6387134  -0.2186424   0.6887488
   1.0704197  -0.5422939   0.8749724  -0.0287740  -0.3356419   0.2947157
  -0.1865617  -0.7528664  -0.7852871   0.3068176   0.4386091  -0.0064644
  -0.1283472   0.1478565   0.0571465   1.3805944  -1.0785049  -0.0788181
   0.5223569  -0.4066507  -0.9334904  -0.1478341   0.0131568  -0.1153787
   1.0045281   1.3901573   0.9752172  -1.3739227  -0.6275615   1.6143298
   0.1941201  -0.5772102   0.1027568  -0.8873482  -1.0376723  -0.2289796
  -0.1272519   1.2375003  -0.0233059  -0.0889452   0.3753879  -0.2486836
   1.2645239  -1.0772145  -0.1805578  -0.3339105   1.5483469  -0.1185461
   0.2615869  -0.4155876  -0.0177993   0.6629842  -0.2513769  -0.1974321
  -0.4871329   0.0576223   0.2794823   0.0736447  -0.0198495  -0.0321334
  -0.7218122  -0.6355278   1.2040596  -0.6517179   0.1755663  -0.5103225
  -0.6179496  -0.0562546  -0.1399507  -1.0085929  -0.1387286  -1.6679747
   0.0264448   0.8633410  -1.1835951   0.0738393  -0.2947680   0.4345623
   0.9266358   0.0233431   0.2651273  -0.5416685  -0.7302911  -0.0382662
   0.0269640   0.2716690  -0.0023313   0.9330841   0.4300423   0.9862719
  -0.9681843  -1.2438780  -1.0327247   0.0090337  -0.0941002  -0.0611961
   1.3433932   0.1249616  -0.3443395   1.0352273  -1.1726446  -0.5599182
   0.2222006  -0.0079991   0.3060592  -0.6091796   0.7743993   0.0676563
  -1.8730040   0.0402448   0.9848227   0.3862200  -0.4183718  -0.1622431
   0.9222568  -0.2263828   0.8778623   1.0974029   0.1912501   0.9580810
  -0.3222153   0.2287119  -0.0068375   0.5302410  -0.1008649  -0.7129282
   1.0829821   0.5035577  -0.4347156   0.0041071  -0.3020574   0.1706668
   0.3030425  -1.6182677  -0.0888699   0.7735214  -0.1271549  -0.7005065
  -0.0940991   0.0082032   0.0042572   0.3366274  -0.1641188  -0.0001827
  -0.1021021   0.1239344  -0.5343344   0.0330104   0.1137263   0.0428066
  -1.2997264  -0.3742600  -0.3878523  -0.3602319   0.5540950   1.0344366
  -0.0356208   0.1450232  -0.1804352   1.3390878  -0.4894977   0.2708284
  -0.4332251  -0.4945999   1.0195053   0.0515241   0.0343197   0.1256760
   1.2023237  -0.2855047   1.0151766  -0.0947233   0.7048613  -0.1202499
   0.1122374   0.1626586   0.0350870   0.6346974  -1.4204316  -0.3771811
   0.4133816  -1.6102077   0.2482629  -0.3644220  -0.0962949  -0.1504141
  -0.5338008  -0.5186557   0.2012283   0.2846398   0.1770906   0.4431646
   0.1296970  -0.0077511   0.5470810   0.7503311   0.2879071   0.1716762
   0.1581416  -0.0526475   0.7537689  -0.1935029   0.0112913  -0.1003829
  -0.5548131   0.7912600  -0.4018587   2.0583820   0.1297362  -1.5217137
   0.1761144   0.0432981  -0.0845352  -1.3220719   1.1408849  -0.6727038
  -0.0238640  -0.1002132  -0.0262779   0.1862095  -0.1128879  -0.2791270
  -0.2953293   0.7270290   1.6662676   1.8627695  -0.0745250  -1.3559539
   0.1067566  -0.0775707   0.0647315  -3.0127535  -0.1121946  -0.2020114
   0.3746376  -1.1631161   0.3437618   0.0477535  -0.1840896   0.0669657
  -0.0627275  -1.0044525   1.0167352   0.7165893  -0.7485343   1.4624397
  -0.2783712   0.0574210   0.1440849   0.2995372  -0.6388833  -1.4549956
   1.1083460  -0.0336181  -1.0652816   0.1361642  -0.1651999   0.0362737
   1.0200332   0.3260579   1.6635380  -1.1919388   0.0591736  -0.3448231
  -0.0745129   0.1370740   0.1382030  -0.5255489  -0.1334451   0.4365511
  -0.6102160  -0.5608481  -0.5574848   0.3617411  -0.1657594   0.1394432
   1.1813202   0.3373257   0.3459468   0.5823030   0.2497531  -0.3389177
   0.0422559   0.0738534  -0.2186051   1.3335984   1.2004848  -0.7884967
   1.0187328  -1.1207092   0.2813974  -0.2488185   0.3100802  -0.1198768
   0.1455154   0.3763595  -0.3567486  -0.3805810  -1.0048339  -1.5569420
   0.1138568   0.1908945  -0.1930787   0.5409043  -0.8699954   0.2584978
   0.0260097   0.9814071   0.5730676  -0.0042809   0.0692872  -0.0474692
   0.3895626  -0.2870780  -0.3270303   1.2053817   0.2573206  -0.4263679
   0.0806075  -0.0529959   0.2035794   1.0161690  -0.8516170   0.0922706
  -1.1906743  -0.0132277  -1.4357722  -0.1509855   0.1022528  -0.2253041
   0.5242553  -0.3729995  -0.3326114   1.4755418  -0.2514186   0.3226857
  -0.0957867   0.0493633  -0.2112747   0.4195772  -0.5882051   0.4785473
  -2.1532275   0.0182015  -0.6232674   0.0883228  -0.1866196   0.0372988
   1.3281165   0.4739617   0.3295658   0.2710335  -0.0120315  -1.0320087
  -0.0430946   0.1716204  -0.1755009   0.2329385  -0.4702016  -0.7668373
  -0.5014742   0.4840129  -0.2026695  -0.1642068   0.2739693  -0.0800187
  -0.9552379  -0.6444411   0.1058981   0.7642856   0.4330229   1.2091338
  -0.1354699  -0.3448036   0.1236583  -0.6588848   0.0411987   0.5098587
   0.3893681  -1.7147564   0.1644757   0.0867501   0.0587965   0.0062507
   0.1799456   1.5368320   1.3764008   0.2595563  -1.0627691   1.3012808
   0.0083007  -0.1221084   0.0360345   0.9662862   1.4642811   0.7961769
   0.1490726  -0.1957703   1.0085773  -0.1094279  -0.0409616  -0.2145385
  -0.2573380  -0.0116334   1.8927251   0.5409306   1.0770964   0.9354645
   0.1080632  -0.2310145   0.2183639  -0.9704595   0.6140492   0.9682957
  -0.4482077  -0.0989548   0.3141619   0.0255669  -0.0873183   0.1196264
   0.1751518  -0.7613067  -0.1009115  -0.1360867   0.3744749   0.9376277
   0.0825234   0.1091240   0.0098515  -0.5653428   0.4460192  -0.9406956
   0.4455252   0.6230056  -0.6181877   0.0255445  -0.3821323  -0.1688003
  -1.6684093  -0.1776262  -0.5328417  -0.3069969  -0.1189215   0.6984531
  -0.0434477  -0.1507896  -0.0830562   0.5268516  -0.0700410  -0.3226955
   0.1721299   1.1472247  -1.4720203  -0.0960375   0.1947622   0.0510995
   0.1411980   0.0549686   0.0906353  -0.7637124  -0.4377806   0.8404707
  -0.2741116  -0.0267870  -0.0384781  -1.5725466   0.6519471   0.8616544
   0.0530665  -0.3731778  -0.4437404  -0.1468132  -0.2797848   0.1489674
  -0.6142413  -0.2182122   0.2326558  -0.1905472   0.8027715  -0.7341844
   0.2781169   0.0445054  -0.0496424  -0.9931819  -1.0607457  -0.6267420
   0.2733583  -1.8848898  -0.0435038  -0.1554908   0.2509192  -0.1490127
  -0.6274073   0.0809610  -0.2553190  -0.1928843   0.6536826   1.1876792
  -0.1596200  -0.1408586  -0.0569836   0.0298485   1.0220412  -0.5371061
   0.2035568  -0.8089793   0.4370706   0.0138271   0.1842310  -0.0809681
  -0.5540741   0.0334482   0.0763431  -0.5492675  -0.5728753  -0.6685557
  -0.0344066  -0.2840974  -0.0992512   1.6143484  -0.0820298  -0.3975104
  -0.3877169  -0.2359905  -0.5593110  -0.2615861  -0.0245331  -0.1275041
  -0.8532469   0.4658307   1.0223404   0.0092200   0.7931545   0.6464447
  -0.0910279  -0.2191084  -0.0774245   0.7575474  -0.7803821   0.0504340
  -2.1864299  -0.2583390   0.7683397   0.3154080  -0.0516131  -0.5228807
  -0.2124261  -0.4004519   1.1552459  -0.5469219   0.3006863  -0.9339434
   0.7428804   0.1842098  -0.2068324  -0.3753070  -0.2006957  -0.6943449
  -0.0779075  -1.1004832  -0.8880646  -0.2136581   0.0895365  -0.0887432
  -0.9191830   0.0189897  -0.9267944  -0.0133573  -0.2177180  -0.8382009
  -0.1081875  -0.0799559   0.0327160  -0.3676215   0.9253972  -0.9311972
  -0.2307632   0.3116454  -0.0553966   0.1780864   0.0528844  -0.1796328
   1.5445716   0.6353491  -0.9348526   1.1483660  -0.3483133  -1.1341854
   0.0771162  -0.4267425  -0.2390221   0.3280298  -0.7416336  -0.6002192
  -0.3963464   1.0070839   0.8137321   0.2555068   0.0212207   0.0166072
   0.1793777  -0.7622979   1.3224306   1.4293978  -1.0483274  -0.6239391
   0.2025199  -0.0253155   0.0732996  -0.7267537  -1.6044222  -0.1408150
   0.0721596   0.2446026   0.7381073  -0.0230204  -0.0225877  -0.0087983
  -2.2017974  -0.3392274  -0.5776411   0.2684003   2.4666564   0.1578059
  -0.2028633   0.1665470   0.3154907  -2.1717104   0.8072225  -0.7173676
  -0.2541492   1.2480610   0.8076234   0.3633812  -0.0227477  -0.3111482
   1.2862500   0.2722528   1.2748699   0.1274281   0.9170643  -0.1549659
   0.3020807   0.2771696  -0.1890019   0.5281229  -0.8450801   0.1668706
   0.1778454   0.2887777   0.1297327  -0.1522090  -0.0530281   0.3332839
   0.2350180  -0.6228231   2.0455400  -0.3579679   0.5811912   0.6669527
   0.2612530   0.2575164  -0.0984687   1.1089719  -0.0354757  -0.3754535
  -0.1530284   0.5874167  -0.6396529  -0.1083972   0.0091512   0.1207646
  -0.5916134   0.2638355  -0.2534515   1.5183910   0.0794505  -0.2896367
   0.0940710  -0.2681974  -0.1779644  -0.5864317  -0.7151734   1.2298985
  -0.4880973   1.0600941   0.0776782  -0.1208952  -0.0776145   0.0130750
  -0.2398027   0.5620461   0.4969490   0.1946910  -0.1791142  -1.2165974
   0.3683258  -0.2443828   0.1319851  -1.0281114  -1.0815639  -1.1260628
  -0.7947924   1.2438145   0.5217579  -0.0306464   0.0779788  -0.0982992
  -0.0040599  -2.0543507  -0.2565025   0.4432041   0.1356848   1.0901302
  -0.0261452  -0.2738115   0.1095442  -0.1340570  -0.1441428  -0.3134860
   0.7239919  -0.4536544   0.3991322   0.1762525  -0.3216079  -0.1435668
  -0.5004465  -0.9808899   0.5297324   0.5954821  -1.1789270  -0.2310153
  -0.3249857  -0.0623932   0.1924623   0.2132941   1.0954834   1.3777180
   1.0437812  -0.7875074  -0.3293298   0.1311818  -0.1479063   0.4313131
  -0.4142439   0.8477620  -0.8548030   0.9309702   0.1035820  -1.5133279
   0.2162255  -0.0625484   0.1990249  -0.5353192   0.4379983  -0.8163177
  -1.2374634   0.3111872  -0.7269058   0.1053984   0.1741469  -0.0041423
   0.7873944   0.3963241   0.1777306  -0.5053036  -0.2499677  -0.9617557
   0.0081868   0.0728259  -0.0157427  -0.5670781   0.8579607   0.8083818
  -0.2684052   0.4946902   0.4116448  -0.1740473  -0.2461097   0.0025918
  -0.5861303   0.7555318  -0.2737388  -0.1307825  -0.1917023   1.6286865
  -0.3904783   0.3845377   0.0299210   1.8172161   2.0857593  -0.7828897
  -0.7896950  -0.3594011  -1.3375771  -0.0518774  -0.0098124   0.2060519
  -0.0647890  -1.2903768   0.0187451  -0.6117963  -0.8166208   0.5911055
   0.0458443  -0.1804825   0.1609251  -0.8611951  -0.1440901  -0.2230721
   0.2361876   0.1910524  -0.8913375   0.0954803   0.1962943   0.0984745
   1.0102700  -0.6758534   0.5664022  -0.6672949   0.5923885  -0.9417998
  -0.2262403  -0.1425744  -0.0079623   1.6194555   1.3587795   0.0254045
   0.7726904   0.4460643   0.5420500   0.0988859   0.0394020   0.2743445
  -0.2988319  -0.1148037  -0.2403387  -0.1432877   0.5479948   0.8590809
  -0.1602799   0.3267496   0.0090792  -0.7221974   0.6610146   0.2235591
  -0.5008189  -0.5921862   0.7474015  -0.1838302  -0.0271935  -0.0552582
  -2.0093634  -0.0749279  -0.9837333  -0.7191582  -0.4737471  -0.0353982
  -0.4605898   0.0545913   0.1354381   0.1906833  -0.1575580   0.5120364
  -0.0951294   0.1330535  -1.4278817  -0.1282576  -0.0542041   0.2573331
  -0.1796903  -0.3709995   0.2489764   0.4093708   0.3226380   0.7502576
   0.2390959   0.5319533   0.1884406  -0.9913593   0.2096818  -0.6303222
   0.1052401   0.2404043   0.4268740  -0.2129465  -0.1784740   0.0099450
  -0.2177017  -0.4643187  -0.1124468  -0.3654848  -0.1902755  -0.6290461
  -0.2486458   0.0152696  -0.0891468   0.7783971  -0.6060205  -0.9960350
   0.8941894  -0.2248984  -0.5554337  -0.0833808  -0.0675931  -0.0155007
   0.3282063  -0.6103514   0.8282452   0.0637096  -1.2621207   0.4430864
  -0.0250281  -0.1305115   0.0303089  -0.7558848  -1.9242188   0.9119410
   0.5491211   0.7878073   0.3333947   0.2417692   0.3658279  -0.1255122
   0.5936748  -0.1019388   0.1878595  -0.6877874   0.4761780  -0.7615979
  -0.1338293   0.0576113   0.3479656  -1.0103863  -0.5918378   1.0584075
  -0.1258537  -0.2179645  -1.6164198  -0.4940073  -0.3217579  -0.0161206
   0.3061292   0.6390604  -0.2117130   0.6596143  -0.6777178  -0.3635939
   0.0356995   0.1533400   0.0367690   1.5492536  -1.2168403   0.9174564
  -0.2689227   0.4687493  -0.7907918  -0.1220671  -0.0020372   0.0359092
  -0.9604153   0.6264231   0.2086654   0.0299564  -0.1444661  -0.6006284
   0.0122179   0.1457668   0.1890701   1.4491098   0.1604634  -0.0006466
  -0.9937944   0.8972176  -1.0859505   0.2580510  -0.1899260   0.1099130
   1.2776048  -0.4507251  -0.5613285   0.3009888  -0.3214392   1.2468304
  -0.1789824   0.0278685  -0.0540925   0.2012124  -0.1794106  -0.4458875
  -1.1788787   0.7526340   1.0255041  -0.0209627   0.3476823   0.0842897
  -0.4682689  -1.3248295  -0.8241553   0.6365254  -0.7654766   0.3265293
  -0.2015008  -0.2643968  -0.3540618   0.6204008  -0.4958776  -0.4263389
  -0.0161884  -0.9149870  -0.9864450  -0.0848599  -0.1950760   0.0882823
  -1.2245766   1.0953993  -0.4014299   0.0550771   0.1064425  -0.2368824
  -0.1026209  -0.2490675   0.0576026   0.4622397  -1.2399248  -0.4955883
  -0.5349397   1.3139889   1.8498216  -0.0281573   0.3144480  -0.0364201
  -0.2418003  -0.3754032   0.3268744   0.8585511  -0.3676745   0.0022191
   0.0162120  -0.0693227   0.0539885   0.5723894   0.3256490   0.6198066
   0.0874940   0.1008617  -0.2215387   0.0706104   0.0194779  -0.2097935
  -0.3787770  -0.4561911  -0.4419436  -0.7528810  -0.0572188   0.4304848
  -0.1841279  -0.1911304   0.5218913   0.8187527   0.2533520  -0.1216481
   0.6110469   0.4961317   1.3079048   0.2562052  -0.1192055   0.0027403
   0.0089229   0.8363666   1.1533518   0.8411459   0.1650387  -0.6544985
   0.4686682  -0.2573792   0.1079925  -1.1608971  -0.5691551  -0.4129509
   1.1248922  -0.3330798  -0.0298085  -0.2357182   0.2849291  -0.2964413
  -0.8826571  -0.2143535   0.2285077  -0.3211177   0.2633128  -0.3989348
   0.1889319   0.2861633  -0.0064143   2.2821124   0.0079186   0.7484990
  -0.2081625  -0.2746596  -0.2391112  -0.2080982   0.0762601  -0.0562026
  -0.9212190   0.3706084   0.9911226   1.7791715   0.5293797   0.0109439
  -0.3263319  -0.2141377  -0.3913377  -0.9022766   0.5227003  -0.0845751
   0.4714701   0.2381291   0.6301188  -0.1700251  -0.4169950  -0.0849311
  -0.6373045   1.1101848  -0.3391579  -0.1668079   0.4733112   0.8902458
   0.0170024  -0.3054207  -0.2133690   0.3277561  -1.5346949   0.3305987
   0.1927767  -0.0797243  -0.4040616  -0.0305082  -0.2184722   0.0373359
   0.2700494   0.2654566   1.7087651   0.6728950   0.8596051   0.6801978
  -0.3418724   0.1867886   0.3003455   0.2203418  -0.3410422   0.4757032
  -0.8667209  -0.3724494   0.6826768   0.1245073  -0.0052886  -0.1068457
  -1.0765604   0.8291076  -0.7034734  -1.0674165  -0.7243310  -0.3358651
   0.3736231  -0.3108525   0.0860696   0.0937565   1.4581722  -0.0437829
   1.0273205   0.5560056   0.5403940  -0.0786229  -0.0638725  -0.0196652
  -0.7302437   0.0460734   0.0382346   1.0421018  -0.7653614  -0.2877137
  -0.3727716  -0.0891716  -0.0530292  -0.8400699  -0.2025123  -0.6676868
   0.5663891  -0.5229153   0.8596931  -0.1383378  -0.0738828  -0.3504073
   0.5101635   0.8259525  -0.1688267   0.3360884  -0.1669647   0.0214513
   0.0446982   0.1890232   0.0598229  -0.2230866  -0.3806781   0.2663391
  -1.0811448  -1.2795137  -0.0752242  -0.1853281   0.5007404  -0.1407043
   0.2228451   0.1816676   0.5621576   0.5384614  -0.0965795   1.3900837
  -0.1003143  -0.1247400  -0.1823421   0.3715166  -0.2026477  -1.0959273
  -0.0921835  -1.1245068  -0.2898582   0.0465751  -0.4002822  -0.1693637
  -0.0165540  -0.0892086  -0.0550362  -0.4372662   1.6506012  -0.5035012
  -0.0081211   0.2635353   0.0085782  -0.1367005   0.3070072  -0.0242433
   0.2911166   0.1684956  -0.0242768   0.2427383  -0.1793954   0.0322557
   1.0655096  -0.2332799  -1.1996062  -0.6904386   0.0349667  -0.8098225
   0.3078175  -0.1674247  -0.2109460  -0.3546101   0.4000996   0.1721207
  -0.4371210  -0.3851427  -0.1682086   0.0757055   0.2947829   0.1728054
   0.6989843  -1.0697470  -0.4797774   1.1835155   0.6525532  -1.9437417
  -0.1340210   0.0641301   0.1922181   0.1223883   1.0329861  -0.0198370
   0.4817219   0.5158159   1.4424825   0.1800402   0.2145068   0.2445206
  -0.5266896  -1.1373226   1.7989682   0.8518957   0.2409097   0.1560670
   0.1103949   0.1404135  -0.1258039  -0.1577710   0.8904812   0.1465094
   0.6938016  -0.3734565  -0.1235319   0.0860748  -0.0367190  -0.1436345
  -0.7715247   0.3800549  -0.6742004  -0.7586000   0.5111657  -1.8275242
  -0.0736425  -0.4555886  -0.1479381  -0.2775306   0.5315479   0.4314297
  -0.4356108   1.3006033  -2.1104680  -0.1676929  -0.0393569   0.2203923
  -0.1139639   0.6908222  -0.3012166  -1.1391847  -1.5337292  -0.2929543
  -0.0981196   0.0501245   0.1012647  -0.1413049   0.7353684   0.3530328
   1.2983919   0.0586876   0.5298474   0.0539991  -0.1087418   0.1301092
  -0.0352572   0.4176060  -0.3169026  -1.2169099   0.5384826   0.1888757
  -0.0284285  -0.1779697   0.2393779  -0.8568802   0.8458301  -0.8465509
  -0.7015577  -0.3800361  -0.0756848   0.1060686  -0.4213798   0.3052510
  -0.9238705  -0.7641670   0.1130524  -0.2837707  -0.7803975  -0.0406363
  -0.1714936  -0.0649851  -0.1999865  -1.0975683   1.3228873   0.4455257
   0.0844555   0.5655407  -0.2515007   0.3780743   0.0725969  -0.0497011
  -0.4169471  -0.0867681   0.4612012  -0.4744997  -0.0675823   0.9943183
  -0.0041237  -0.0984000  -0.2780076  -0.7179846   0.8343551  -0.3927171
   0.3933322   0.7066973   0.1300239   0.0844049  -0.3074825   0.0452541
  -1.1327812  -0.2978266  -1.0829836  -0.3071222   0.4662638   0.1707960
   0.0746927   0.1750290   0.0119474  -0.5836231   0.3924667   1.2985867
  -0.8983092   0.6488069  -0.5359919  -0.2884799  -0.2360872  -0.2463984
   0.5397338   1.5840692   1.0323951   0.7637567  -0.7535969  -0.5825894
   0.1603295  -0.1545570   0.2809742   1.4787624   1.3332140  -1.2692105
  -0.0270643   0.1732308  -0.0902038   0.1933256  -0.0744780  -0.3376613
  -0.2964835  -0.6430103   0.0908998  -0.6711832   0.6427608  -0.6573795
  -0.3309066   0.1266651  -0.0004551   0.7734599   0.4265544  -0.2688054
  -0.3061462   1.2333618   0.6000517   0.0473407   0.0740277  -0.1100772
  -0.4943232  -1.4887959   0.7981449   0.3218534   1.0491460  -1.0651930
  -0.1655355  -0.0601378  -0.0887427   0.0621284   0.0811965  -0.2230107
   0.5330926   0.9714507  -0.2315911  -0.0375048  -0.1648386  -0.0674241
   0.3139752   0.9854470   1.1334128  -0.0025923  -0.4248758   0.8084902
   0.2232490  -0.2650225   0.0457005  -1.2108603  -1.1490757  -0.1124403
  -0.8916452  -0.4149007   0.2895569  -0.1609930  -0.2355742  -0.0663845
   0.2276733   0.3188741  -0.3554167   0.5756799   1.4310386  -0.5713236
   0.0116614  -0.1079791   0.2318720  -0.6555253  -0.2775842   0.0918540
   0.8139829   0.5540874  -0.6448401   0.3055107  -0.0575057   0.0855939
  -0.6704717   1.1747446   0.2452995   0.2986337  -1.3482960   0.3139697
  -0.0463047   0.1670420  -0.2803746   0.4188651  -0.0012953  -0.9416901
   0.5487433  -1.0594946  -0.8641090   0.2578092  -0.0314660   0.1026068
  -0.1532421  -0.2908511  -0.5056068  -0.4426754   2.1009163   0.2372369
  -0.0706731  -0.1063563   0.1163689   0.9890703  -0.1232990   1.5163293
  -0.1455791   0.0168026  -0.4446620   0.1380776  -0.0844753   0.1578287
  -0.8944377   1.0166763   0.5782621  -0.3850376  -0.2046039  -0.8277938
  -0.3640055   0.1730016  -0.1923728   0.6992753  -0.2447373  -0.3046404
  -1.4078063  -0.7129424   0.0493818  -0.2338615  -0.2886670   0.0092725
  -0.5430468  -0.1183565  -0.8432778  -1.7447781  -0.3553263   0.0527260
   0.3169438   0.0489545  -0.2610021  -0.5565903   0.1838327  -0.7199877
  -1.0776526  -0.4298667   1.6275195   0.0487646  -0.1215179   0.0267678
  -0.0195679  -0.5583658  -0.1685417   1.0783232  -0.7813338  -0.4946981
  -0.1804769  -0.0193990  -0.1903755  -0.3158268  -0.0692597   0.0001893
   0.3099984  -1.1442378   0.4345423  -0.0222452   0.1753770  -0.2649737
   0.0431139   0.3214415   0.4261055   0.5591431  -0.3152276   1.4102404
  -0.1388085  -0.0044594   0.1030996   0.1602869   1.9310351  -0.2160195
   0.2887751   0.0722512  -0.1562453  -0.0111080   0.1539572   0.1233349
  -1.1732547   0.8306219   0.4812027  -1.3286016  -0.7729269   0.4052473
   0.1280967   0.1258368  -0.2309769   0.9331000   1.3241836   0.7824609
  -0.7993092  -0.2778822   0.2688607  -0.0322780   0.1961102  -0.1254771
   0.4141307  -0.3692577   1.2608328   0.1228798   0.2421058  -0.5650154
   0.5561070  -0.2197701   0.0001481   0.5426961  -1.0306156   0.3053492
  -1.4798611  -0.3678459  -0.0866882   0.2360152  -0.0735301  -0.1516322
  -0.0302892  -0.9093329   0.7234009  -0.5781634   0.1626756   0.8478757
  -0.1275967  -0.0067174   0.1951466  -0.1013749   1.5248942  -0.8357265
   0.1854971  -0.1568291  -0.6815000   0.1222771  -0.1411136  -0.1317431
   1.3972469   0.6060200  -0.0585038  -0.0305389  -0.0030502  -0.2643151
   0.0955975  -0.1370555   0.3341928   0.8494993   0.6118183  -0.4110220
   0.1038832  -0.8712603   0.0076919  -0.3740649  -0.0668658   0.3477803
   0.8123896  -0.5144217   0.3441992  -1.1565824   1.7341686   1.9932954
   0.0983043  -0.4565677  -0.1141516  -1.0798494   0.4683792   1.3755248
  -0.9864737   0.1718229  -0.3618909   0.1649990   0.0556368   0.2050385
   0.2689147  -0.7565192  -0.1879831   0.0526880  -0.7017077  -0.1348876
   0.1794732   0.0256211  -0.2299769  -0.7349293  -0.7061172  -0.9885331
  -0.7134493  -0.0843485  -0.2730548   0.0040881  -0.0282637  -0.0222268
   0.0669363   0.3246336  -0.7503440  -0.0883007   0.6092865  -1.4928656
   0.0488393   0.0593129  -0.0241910   0.9902669  -0.4471574   0.0562278
   1.0632284   0.9274470  -0.0383121  -0.1481549  -0.2061481   0.3694498
  -0.9624460  -0.0032921  -0.3806649   1.1287255   0.8162608   0.4269613
   0.0846452  -0.1382114   0.2139872  -0.4910873  -0.0279268  -0.1421279
   0.2738362   0.0492343   0.3818522   0.0992079   0.1066484  -0.1495895
   1.0601921   0.4768638   1.0542122  -0.1734278   0.3166055  -0.0656430
   0.4296998   0.3444891  -0.0106231   0.6272682  -1.1135418  -1.8077297
   0.0709126  -1.0143176  -0.6146064  -0.0092273   0.2758491  -0.1177157
  -0.2659166  -0.8168213  -0.8927613  -0.0932002   0.4150357  -0.3200858
  -0.2196383   0.2341592  -0.2780856  -1.5439076   1.3359229  -1.1969045
  -0.9753073   0.9647864   0.1339698   0.1383418   0.0726499   0.3964911
  -0.4786458   0.2355387  -1.2823707  -0.7645167  -0.0283605   0.1807316
  -0.1674485   0.2057069   0.0405286  -1.6034768   0.5938967  -1.6114715
   0.1563273  -0.7910294  -1.2015343  -0.1900978   0.1210408  -0.0432687
   1.0302240   0.3222695   0.5676460  -0.8899611   1.3296572   0.3022131
   0.0361050  -0.0022797  -0.1617159   1.2518762   0.5955452  -1.6067922
   0.5247993  -0.7284442  -0.8847250  -0.0438184  -0.1191501  -0.1555439
   0.0509373   0.2188261  -0.1481276   0.6947609   0.0487655   1.3043681
  -0.0121329  -0.1522442  -0.1451645  -0.8097512  -0.1755938   0.6150954
   0.5058269  -1.6556387  -0.7148805  -0.2022574   0.3735051   0.0678063
  -1.9102537   1.7291593   0.7947426   0.1253263   0.4620436  -0.5167417
  -0.1685748  -0.3663591   0.2365464   1.2775637  -0.6153280  -1.0232943
   0.2277270   0.1040937   0.1918267   0.1093940  -0.1258635   0.0047735
  -0.6011522   0.5329796  -0.0587993  -0.1491021   0.5365733   0.4393504
  -0.3418553  -0.1113999   0.1060358   0.7450458   0.4171432  -0.7166816
  -0.1555944  -1.4493672  -0.0763948   0.0532598   0.2872412  -0.0558358
  -1.7555978   1.1524336  -1.0969204   0.0745138   0.1304703   2.5975674
  -0.3279320   0.1508755   0.0676512  -0.0483754  -0.2164577  -1.1001940
   0.3622174  -0.1505489   0.2850496   0.1874597  -0.0020316   0.0316503
  -0.4750268   0.2500583  -0.9004019   0.5284603   0.7615453   0.9392103
   0.2308156  -0.1993673  -0.1553219  -0.0871292  -0.9025418   1.0022685
   0.0261358   1.1432814  -1.0280062  -0.1762181   0.3478910  -0.1019767
   0.9736108   0.5357974   0.5592743   0.3007242  -0.4978548   0.3195107
  -0.0865157   0.2026825   0.0657296  -0.6365974   0.4542849  -0.9284994
  -0.8530639   0.6711000   0.1256496  -0.0109302   0.0318331  -0.0583769
   1.3459360  -0.0656547   0.5083107  -0.3850108   0.5776185   0.9811870
   0.3261854  -0.0077225  -0.1190948   1.6507848  -0.2177636   0.9462224
   0.6675740  -1.9916086  -0.7043531   0.0174437   0.0780355   0.0616822
  -1.2474093   0.0962698  -0.8386960  -0.6106729   0.0711671   1.1033342
  -0.0725581   0.0171790   0.3931503   1.0586679  -0.3751012  -0.9870203
  -1.7800711   0.5578478   0.1055535  -0.0329264  -0.2673815   0.2550310
  -1.4877542  -0.8531758   0.6164875   1.0295752  -1.5728209   0.6765385
   0.1279489  -0.0361330   0.3078810  -0.4875976  -1.3047517   0.1500322
  -0.7893876  -0.8588016  -0.4311215   0.2183998   0.1283082   0.0933221
  -1.1170647  -0.5018596   0.6409520   0.0835763  -0.4705013  -1.3918874
   0.2672233  -0.1625481   0.1846404   0.2775912   0.0006009  -1.2910129
  -1.1854465   0.1295730   1.4086429  -0.1247449   0.0772371   0.3140176
  -1.0504472   0.9360855   0.1123338  -0.2964312  -0.0155227  -1.1059880
  -0.3252757  -0.1843361  -0.4510268  -0.5795940  -1.4620282   0.7765644
   0.7676656  -0.8865517  -0.3786216  -0.1792520   0.2539765  -0.2045353
   1.3897132   0.1188794  -2.2847596   1.1751839  -0.3946753  -0.5660060
   0.0438529  -0.0946451  -0.1723105   1.7633515  -0.4031420   0.3320579
   1.0519510   0.5586210   0.1195080   0.2841966   0.1338094  -0.0017894
   0.9606155   0.8233266  -0.6179174   1.2334432  -0.8807531  -0.6865988
  -0.0134748   0.1812179   0.3295877  -0.4375361   1.5687110   0.4519298
   1.0341852  -1.1884563   1.1919851   0.0324315   0.1819616   0.0571923
   1.2843828  -0.2271772   0.5351407  -0.2859897   0.0961601  -0.6208895
   0.2025853   0.1319493   0.3381877   0.0326119  -0.7282388  -0.4522968
   0.8161561   1.4899511   1.8343243  -0.2752603  -0.1407020   0.0818781
  -0.0624555  -1.1101200  -0.0751468  -0.4578868  -0.1382036  -0.0000233
   0.3212485  -0.1151254   0.1322930   0.1805861  -0.1246636  -0.5081095
  -0.8419861  -1.3170537   0.5848669   0.2752291   0.0172546   0.2262830
  -0.0615704  -0.0365678  -0.0539806   0.9148649   0.5371824  -0.5015207
   0.1662445  -0.1338431   0.1325132  -0.2501099  -0.8657408   0.7235630
   0.9248597   1.4601609  -0.2706339  -0.0358257  -0.2774024   0.3568956
   0.5936602   0.0845021  -0.3888704  -1.0036709   0.0923257   1.3432458
   0.1750223   0.0410591   0.3014803   0.2894065  -1.0792879   1.3012805
  -0.2673199  -0.5087932   0.9775756  -0.1523583   0.1126000   0.2887679
   1.4748374  -0.1910754  -0.6955792   0.1900474   0.1740959   0.7294984
  -0.2052006   0.0727292  -0.2226296  -0.1375700  -0.2148566  -0.4352954
   1.1193086  -0.2530402   1.2928470   0.2272109   0.1882828   0.2023811
   0.3344529  -1.3660411   0.7043349   0.9868250   1.0834265  -0.2143842
   0.0687015  -0.3467168  -0.4305644  -0.2039612   0.2773652   1.0165471
  -0.2929974   0.3057974  -0.2725148  -0.3819467  -0.1038455  -0.0139857
  -2.1392543  -0.7867146  -0.2712594  -1.2786816  -0.4642252  -0.3967480
   0.0036166  -0.1077217  -0.0334851  -0.2021630  -0.1048478  -0.7722970
  -0.6131088  -0.6886439  -0.3356607   0.1150218   0.0709811  -0.3191985
   0.1828108   0.6501663   1.6011391   1.3525996  -2.4157267  -0.9825524
  -0.0390219   0.0178050   0.0767196  -0.9283608  -0.7547322  -0.0529578
  -0.9141933   0.9250660   0.5600578  -0.1756959   0.2226148   0.3583884
   0.7324934  -0.7020088  -0.2939058  -1.2916913   0.2481124   0.1558472
   0.2271750  -0.3322764   0.1074230   0.5172505   0.8644082   0.4854590
   0.1685992  -0.8547127  -0.2779094  -0.1002596   0.1569434  -0.1158361
   0.0466656   0.5310339   0.9016122  -0.6566220   0.1617560   0.8444182
  -0.0453288   0.0378422  -0.1872441  -0.4640161   1.6885898  -0.7355108
   0.0844200  -0.4774357  -0.4104349  -0.1021933   0.0839553  -0.0235202
  -0.7235374  -1.4104603  -0.6159053  -0.5463559  -0.7274480  -0.9685116
   0.1934811   0.1137375   0.0704561  -0.6053341   0.2938003  -0.3331116
  -1.1333757  -0.7606334   0.0451056  -0.3536037   0.1163797  -0.1013028
  -0.2565037   0.2462666   0.2299582  -1.2780175  -0.6677725   0.5855703
  -0.1180726  -0.2627538   0.0637615   0.6256666   0.4176513  -0.3909113
   0.5375631  -0.2083839  -0.5404140   0.1000849   0.2910300   0.1096346
   0.7619543  -0.5086414   0.2973255   0.2395629   0.8115030  -2.2776058
   0.0158009  -0.1969918  -0.1034164  -0.7135232   0.1927088   0.0926262
   1.2120696   0.0770212  -0.4155351   0.4393579   0.0201795   0.1454832
   0.7422538   0.3114377  -0.0877847   0.8831545  -1.0426398  -0.1896280
  -0.0614975  -0.3781474  -0.1027602  -1.1143662   0.3062031  -0.5978242
  -0.5337954  -0.6195173   0.5243717  -0.0896499   0.0219434   0.2262992
   0.1859693  -0.4883446   0.6250216  -0.2065924   0.4717628  -0.9124949
  -0.1423897   0.0381149   0.0991389  -0.3626728   0.3132021  -0.2332550
   0.7452722   0.6294037   0.1532904  -0.0502471  -0.2417694   0.3722507
   1.1298383   0.1553749   0.4639782  -0.9829821  -0.0348796   0.4204587
  -0.3354441   0.0920471  -0.1031691  -0.5330582  -0.3696922   0.5823042
   1.6872260  -0.2824835   0.2581870   0.0354763  -0.1802963  -0.2561589
  -0.0065542   1.9209410  -0.4811383   0.2585401   1.1772275   0.0357054
  -0.4535522  -0.2411279   0.0192021  -0.5030180   0.3071066  -0.9277655
   0.2958652  -0.4935547   0.1614072   0.2336239  -0.2198668  -0.1364633
  -0.3645043   0.1010542   0.8519305  -1.1420730   1.0310314   0.2763714
   0.4774659  -0.2488399  -0.1556546  -0.6201190  -0.5752471  -0.5392549
  -0.1060063   1.1420681   1.8026729   0.0119328   0.2167079   0.0043471
   0.2601185  -0.9662852  -0.3457901   0.2339304  -0.8572152   1.1980768
  -0.2766929  -0.1455035  -0.0139645   0.2267789   0.4689546  -1.0048727
  -0.3191384  -1.4813818   0.5024535   0.0421062  -0.0450872  -0.3324511
   0.5794435  -0.4205408   0.2663930   0.8136498   0.5799398  -0.4500614
   0.2293681  -0.1097281   0.1087276   0.4313080   0.0562313   0.8564558
   0.6587398  -0.1470495  -0.0571755  -0.1183736  -0.1824760  -0.1312853
  -0.6263855  -0.2967209   1.3368956  -0.3663566   0.1071415   0.5868987
   0.0431348  -0.1779394  -0.0574774  -1.1445173   0.9884786   0.8447117
   0.7238408  -0.6160676   1.6589191   0.2063671  -0.3854523  -0.0321574
   0.0139931  -0.1382944  -0.9842299   1.0683893   0.5369592  -1.0729405
   0.0660594   0.0606799   0.0756635   0.0879194   1.6573117   0.4911243
  -0.0161405   0.1801733  -0.1103519  -0.1940118   0.4243922   0.1943748
   0.2936251   1.1478298   0.1736780  -0.5228688   0.1240358   1.0352021
  -0.3423398  -0.0151403  -0.1127139   0.5557739   0.4103283   0.0126281
   0.3993685  -0.4081479  -1.1275387  -0.0687274  -0.1499701   0.0695802
   0.5594827   0.2388731   0.6570523   1.1721263  -0.0038767   0.8104374
  -0.0946470  -0.1311695  -0.1623683   1.2245382  -1.5145924  -0.0770499
  -0.6992576   2.4524959   0.1378436   0.0286358  -0.1022853  -0.0193682
   0.3405369   1.2876276   1.1709059  -0.8753044  -0.0444250  -1.3671447
  -0.3205554  -0.0689782   0.0239206  -0.2856644  -1.3344145   0.7047018
   0.0172995  -0.3895514  -1.4932703   0.3841522   0.0093096  -0.0426090
   1.7450177   0.2723059  -0.4624998   0.3285722   0.4801569  -0.0532530
   0.0780217  -0.1292374  -0.0097941  -0.3920984  -0.6945730   0.1795592
   1.1179629  -0.4168036  -0.9019494   0.1676964   0.3151281   0.0733206
  -0.7972884  -0.0841774  -1.2203451   0.2942460  -0.5621992  -0.5952502
   0.2383850   0.1683465  -0.1117442   0.1272008  -0.6821578   0.3420733
  -0.0692933   0.0061003  -0.6233709   0.2030654   0.1942588   0.1404866
  -0.2974538   1.4765877   0.6333329   1.5736076  -0.2045580   0.0677026
   0.1424749  -0.1443182  -0.3386280   0.9386247   1.3231495   0.3106880
  -0.0286993  -1.0453469  -0.0996191   0.0138479  -0.2907882  -0.5148315
   0.1620620  -0.6189696   0.7076097   0.7609538  -1.2511017   1.3119672
  -0.2073533   0.0234165  -0.2294650   1.3028423   0.5280497   0.9110760
   0.8214368   0.0453074   0.2501598  -0.0607506  -0.1181806  -0.0835882
  -1.7688505  -0.1510792  -0.7388449   1.1993586  -0.4238102   0.1053057
   0.2780194   0.2314422  -0.0245659   0.3071991  -0.6669769  -1.2625118
  -0.4820357  -0.4830181  -0.6362261  -0.4459478   0.2717699   0.0846188
  -0.9480822  -1.6043803   0.6766824  -1.3074586   2.7287022  -2.0976258
  -0.0256921  -0.1850596   0.0150056   0.8111192   0.2060768  -0.7262868
  -0.2254060   0.6222032   0.0496743  -0.0136954   0.3677279  -0.1364546
  -0.2604425  -0.2201238  -0.1067343   0.2551588   1.3141952  -0.6562452
   0.2902549   0.0896946  -0.1289656  -0.4267869   0.1522988   1.2938567
  -0.8589918  -1.0491345  -0.5683729   0.3132220   0.0522080  -0.0266008
   0.1362895   0.5112734  -0.9388060   0.1615250  -0.7111367  -0.5957407
   0.0392753   0.2073488  -0.2292298  -1.0942387   0.2531458  -0.6084191
   0.4241955   0.3208499   0.0577177   0.1027667  -0.2734373   0.1851281
   0.0188153  -1.4039379   0.2865064   0.0730111  -0.7951060   0.2775318
   0.0003390  -0.1585809   0.0716545   1.0260766  -0.7467032   0.1596708
   0.1564162  -0.8063017  -0.4877475   0.0583671  -0.2292715  -0.3836750
   1.5300812  -1.1835977   0.6147127  -0.7385270  -0.5348493   0.8368974
  -0.1973094   0.2128279  -0.3614491   0.0349365  -0.0345045  -0.3251552
  -0.5306727   0.1413408   0.3098861   0.0409072  -0.4205689   0.0753294
   0.1949067   0.0934529  -0.3597175   0.1691862   1.3832915   0.0314009
  -0.3554987   0.0404062   0.3234702   0.7757486   0.8083403   0.5703617
  -1.0487768   0.2154331  -0.2373977  -0.0406093   0.0876032   0.0737944
   1.9192197   0.9134604  -1.0994949   1.5627913  -0.7713691  -0.1652653
  -0.0753962   0.3197601   0.0770460   0.4036085  -0.4496931  -0.0057251
  -1.3863233  -0.5743762  -0.8462452  -0.0834595   0.3048033  -0.1223137
   0.2435521   0.4430272   1.2325921   0.0323461   0.3269341   0.0786123
   0.0954583  -0.0024853  -0.1617048   0.8810666  -1.4441686  -0.6071001
  -0.7391926   0.3256575   0.9785488   0.1596877   0.4090238  -0.0194350
   0.4104694  -0.0068886  -0.0060339  -0.0828744   1.3578710  -1.1684956
   0.1505080   0.2042804  -0.0198329  -0.0118600   1.2586250   1.3603802
   0.5694211   1.6090219   0.4522135   0.2490804   0.2660756   0.1705987
  -0.7367576  -0.5457474   0.1789400   0.2650561   0.7179964  -0.3188564
  -0.2646062   0.1954872   0.3726664  -0.5159844   1.2337777  -0.9237351
   1.4161705   0.1967664  -0.4274841   0.2274504   0.0555795   0.0320265
   1.5931452  -0.5450511   0.2529704  -0.0445596   1.0314920  -0.5601342
   0.0561874  -0.0244934  -0.1705555  -0.5801981  -0.6622584  -0.5500367
  -0.7568230  -0.4505611   0.6479468  -0.0312071   0.0635244  -0.1427426
  -0.7086651  -0.9413555  -0.2858961   0.7184857  -0.5416328   0.1812674
  -0.0149380  -0.1496451   0.2810171   0.9934317  -0.2191144  -0.0728506
   1.6111008   0.5645675  -0.2320457   0.0089226   0.3055100   0.1709583
  -0.1707153   0.7474579  -1.1747105   0.1141536   1.4080585  -0.5623039
   0.0612761  -0.0233538  -0.3674380  -0.7062945   0.8369715   0.0329317
  -1.3334980   1.2584044  -0.3296828   0.0437509  -0.1631791  -0.3777627
  -0.3371487   2.1982989   0.4300047  -0.1462490  -0.5851841   0.7913135
   0.1593573   0.1488442   0.1154306   0.0331581   0.5932019   1.7869370
  -0.5323609  -0.4622400   1.0913581   0.0548732  -0.0303130   0.0998680
   0.5619602  -0.8937867  -0.0157267   0.0128188   0.3345366   0.5350299
   0.0918048  -0.2175180   0.2518201  -1.3542820  -0.4423713  -0.2326094
   0.2455650  -0.7211866   0.1245424  -0.2545070  -0.1491057  -0.2739129
  -0.3599291  -0.5971233   1.2487428  -0.4311079   1.0216476  -0.2394937
  -0.1059014  -0.1903336  -0.0969696   1.6440251   0.1558188   0.7415354
  -0.3279753  -0.7830352   0.4769276   0.4711756   0.0085967   0.1372661
  -0.0879537  -1.1511453   0.9022453  -0.1808977  -0.0505142  -0.0624786
   0.1733910   0.1019379   0.0262749   2.3729037   0.8354408   0.1970701
  -0.3282100   0.0765411  -0.1160122   0.2325481   0.3870147  -0.3007807
   0.1608190   0.9975620   0.0014735  -0.6009283  -0.1084829  -0.7363344
   0.0582934  -0.1449169  -0.1379540  -0.0181913   1.0226938   1.0357880
  -0.8101564  -0.6480256   0.9065344  -0.0095202   0.0272162  -0.1131987
   0.3534896   0.0503360  -0.7969047  -0.9026833  -0.2035849  -1.1348982
   0.1903117   0.1770371   0.0026854   0.1985233  -0.1200183   1.4226419
  -0.8156291  -1.0563711   0.3988306   0.1485690   0.3249273  -0.2879064
  -0.4532847   0.2663926   1.5251713   0.5131682  -0.1217060   0.1936950
  -0.0177358  -0.1304587  -0.2452434   0.4602026  -0.8479005   0.4515471
   0.8839745  -0.2063502   1.1399693  -0.1264818   0.1082883   0.1191537
  -0.7523737   0.3117222   0.1134733  -1.0376028  -0.5017668   0.3741919
  -0.0617328  -0.2478790  -0.2879826  -0.2630453  -0.1838466  -0.7962155
  -0.2099984   0.7901775  -0.2738341   0.0349226   0.1062344  -0.1051737
   1.2215829   0.1953070  -0.0168776  -0.3112922  -0.4031845   1.1600488
  -0.2131551  -0.2643017  -0.1693133   0.2275375   0.2116007  -0.2966528
  -0.3034135   0.6904805  -0.6593995  -0.2796996   0.0901482  -0.0331132
  -0.7682000   0.1581783   0.3930438  -0.4772443   0.1032443  -0.6248103
  -0.0758471  -0.1994472  -0.2506530   0.0694501   0.0185084   0.4564430
  -0.1937141  -0.9178111  -0.4129536   0.3741889  -0.2535327   0.0444726
   0.9065747   0.0076260  -2.0027731  -1.0549745   1.8189862   0.6347842
   0.1331368  -0.1030986  -0.1326333   0.5449936   1.2138617  -0.7421705
   0.4859674  -0.6475740  -0.4274415   0.0040377   0.4902582  -0.4806897
  -0.1414204  -0.6455591   0.4963863  -0.1616328  -0.4135909   0.8422255
   0.1964276  -0.0113913   0.0075963  -0.2147499   0.0221902   0.1899714
   0.7275618   0.8361634  -0.5308330  -0.3175969  -0.3825966  -0.2403147
  -1.0222125  -1.1769674   0.5500573  -0.4096106  -0.7836458   0.0621333
  -0.0829097  -0.0136990  -0.2644911  -0.1618278   0.3289284   1.4342004
   1.3688657   0.5347204   0.1248239  -0.4640171  -0.0965511   0.1876402
   1.5930317   0.1285392  -0.4988960  -0.7866210  -1.2829875   0.9937290
  -0.0825008   0.3922840  -0.1212994   0.8379902   0.6825988   0.6949133
   1.0700541  -1.1242449  -0.0482552   0.1843404   0.1768767  -0.0828460
   0.9533176  -1.5661625  -0.4171961  -0.3227631   0.1309578   0.4665392
   0.1330710   0.0458866  -0.2753977  -0.6393734   0.5568525  -0.1972585
  -0.7955853  -0.4780521  -0.2206301  -0.1642435  -0.2578740   0.0474425
  -1.4159768  -0.6234247  -0.0708867  -0.8675264  -0.8947279  -0.5471541
  -0.0941326  -0.0654188   0.1263665   0.8442811   0.8414579  -0.9225552
  -0.3325710  -0.3336892  -1.0675275  -0.3226588   0.2762815  -0.0379514
   0.0488959   0.0009412  -0.1505505  -0.4745501   1.9493219   0.0466971
  -0.2139468   0.4126860   0.1229895  -0.4706289  -0.8353912   1.0869995
  -1.2637930   0.5702874  -1.9587670  -0.0903900  -0.0599705  -0.1298635
   0.4949874  -0.6759851  -0.5089369   1.4637747  -0.0909269  -0.8348137
  -0.0835857   0.1914935  -0.1759560  -0.1696328   0.2590288   0.5705539
  -1.7070259   0.8167150   0.0690620   0.1355852  -0.1035810   0.0263371
   0.0148158   0.1721799  -0.0161276   0.8433786  -0.1160083  -0.7628237
  -0.0070673   0.0159509  -0.1083823  -0.4299803  -1.0957355  -0.1517743
   0.0284275   0.0955052   0.3623366  -0.1219193   0.1284099   0.0915468
   0.4731172   1.1992368   0.4841434  -1.4763222  -0.1455554   0.3723540
   0.0282388   0.2868413   0.0373770  -0.8604125   0.6749023  -1.2706999
   0.0367291   0.5387355   0.0330206  -0.0242830  -0.0766364  -0.2364861
  -0.0696670  -0.1696919   0.3752279  -0.9301600  -0.6087600  -0.5186577
  -0.1377628  -0.2301135  -0.3530827   0.1700539   0.0699077  -1.0569112
  -1.5205803   0.6194842   0.7217885   0.0535902   0.0101580  -0.2679002
  -0.4332343  -0.0298537  -0.3911761  -0.4826133  -0.7784961  -0.3658227
  -0.0195652   0.1836485   0.0245520  -0.2748293  -0.9196871   0.1356522
  -0.0206904  -0.7706740  -0.7985098  -0.0424025   0.0742514   0.2052565
   0.5357429  -0.7062557  -0.0343088   1.3063095  -0.2600014   0.5365888
   0.1927451   0.0845867   0.1931616   0.4941379   0.9951649  -1.2266016
  -0.8134178   0.1302064  -1.4984735   0.1685824  -0.0337304  -0.1188787
  -1.2314777  -0.1880465  -0.6474829  -0.3306065   0.3486568   0.1313897
   0.2289352  -0.2324099  -0.1464471   1.7890802  -0.2581213  -0.1146309
   0.1109666  -0.9191506  -0.9549134   0.1269620  -0.1245461  -0.2415238
  -2.2125035   0.1611760  -0.7360105  -0.3159568   1.0671936   0.5419484
   0.3800821  -0.0876328   0.0682183   0.0530324  -0.6988308   0.3750183
   0.0811560   0.4118033  -0.7397728  -0.0900746  -0.0103068  -0.1478402
  -0.6571456   0.4763651   0.0863193   1.4023648   0.4469222   0.6772488
   0.0985227   0.0083453  -0.0537919  -0.1521328  -0.0481728  -0.8690924
   0.3691572   0.2706092   0.0277224  -0.0884587   0.2397850  -0.1468129
   0.0798339  -0.5529664   0.0158541  -0.3182311   0.7175678  -0.9443472
  -0.2411665  -0.0597696   0.1492699   1.5117752   0.5041765   0.6505439
  -1.6347532  -0.1761419  -0.3876048  -0.0923964  -0.3137535  -0.1911108
  -1.3889248   0.1550200  -0.2210118  -0.0439709  -0.1524490   0.3574712
  -0.1280800   0.1290064  -0.0532304  -0.6435294   0.3676689  -0.4785957
  -0.1999523  -1.0789760  -0.1467960   0.0939309   0.1315457  -0.1696570
   0.2144252  -0.3239930   0.8873731   0.6515865  -1.0297233  -0.3042994
   0.0168395  -0.0210690  -0.1323515   0.0889495   0.3157316  -0.0686785
  -1.0148902   0.9499573   0.3173836  -0.0367449   0.1584776  -0.0440724
  -0.0520125   0.5464394   2.0628457  -1.4130271  -0.1954414  -0.5683937
  -0.0366199   0.1761306   0.1841065   0.7104900   0.3130954   0.4872717
   0.8924909   0.7002384  -1.0504937   0.1077402   0.1853990   0.0108867
   0.2248098  -0.8031780   0.1311798  -0.2741408   0.7602420  -0.6043281
   0.0209605   0.2628361   0.0146825  -0.2402743   0.4309488  -0.4386573
   0.8421481   1.3633242   0.6031826  -0.3089562  -0.3015742   0.1406113
  -0.8395626   0.1922978   0.7521009   1.0351269  -0.0797881  -0.6393975
  -0.1847507   0.0762141   0.0130691   0.6041691   0.1418433  -1.2037625
   0.1750888   1.1028251   1.6348758   0.1536951   0.3972303  -0.0243891
  -0.4015394  -0.8725668   0.6286360  -0.1972536   0.3929579   0.1534093
   0.1661452  -0.1541581  -0.1833899  -0.7359424   0.4356133   0.7705020
  -1.4016432   0.0428924   0.1413186   0.2929748  -0.0364987   0.2726377
   0.8273931   0.6021036   1.0127808  -0.3209059  -0.8711120   0.3178978
  -0.2917569   0.0521868  -0.5407949  -0.2327383   1.0326714  -0.9598883
   1.4509348   0.2289652  -0.7716938  -0.0630850  -0.0910053  -0.2030284
  -1.1808472  -0.2171616   0.9547929  -0.3298532   1.0082938   1.0964757
  -0.1012009  -0.2446856  -0.0804934  -0.3995104  -1.0367299  -0.7549781
  -0.2783853   0.5130735   1.1429698   0.1609078   0.1307976  -0.0812612
   1.6780363   1.3948110   1.3495568  -0.1156097   1.2680302   0.9793132
   0.2291058   0.3605486   0.2558464  -0.6484939   0.8391197  -1.5700979
   0.5622539  -0.6629707   0.0753002   0.3777882   0.2881333   0.0424907
  -0.3631092   0.6606678   0.4603328   0.1529314   0.6734162  -0.8937982
   0.1191167   0.2256950  -0.0455848  -0.9078837  -0.8101392  -0.7758590
  -0.7519463  -0.0759342   0.3923388   0.3990852  -0.0679716   0.1794678
   0.2626670   0.5710388  -0.0042117  -0.5575400   0.7668030  -1.1059123
  -0.1692428   0.0738921  -0.1764335  -0.3455326  -0.1757518  -0.6533192
  -0.2811304  -0.7716938  -1.8552068   0.1136909  -0.2711184  -0.2336655
   0.5741697   0.1473059   0.2940485   0.1542382  -0.5241689  -0.7758565
   0.0989899  -0.3209711   0.1082437  -0.3478597   1.0667753  -2.2146333
   1.2384376   0.4050988   0.2691795  -0.1804981  -0.0012128  -0.2442261
   0.0597012   0.9792135  -0.0846879  -0.5942763  -0.0514970  -0.7929548
  -0.2385407  -0.3109382   0.0428435  -0.2380454  -0.0773078  -0.6119753
  -0.4729601   0.5197970  -0.2080225   0.2356839   0.0395980  -0.1465946
  -0.6432568  -1.2083789   0.5141601   1.6212420   0.2801302   0.4573545
   0.1220293   0.1495181   0.2875840   0.0453286  -0.8270882   0.0384915
   0.6498398  -1.0053001   1.1705075   0.0810551   0.0621855  -0.0835429
   0.2530177   0.5518430   1.1117752  -0.9571178   0.8443587   0.3048472
   0.0289095  -0.0211600  -0.2064358  -0.2475220   1.1028473  -0.9837482
  -0.1722672  -1.4971482  -0.3166671  -0.0958147   0.2554941   0.2782211
  -0.2336117   0.6314089  -0.0739609  -0.4989331  -0.1278715  -1.0021231
  -0.0457342  -0.0558692  -0.0378175   0.8460428   0.0699959  -0.4084432
   0.6891579   0.4606635   0.1437656  -0.2390170  -0.1740062   0.3348317
  -0.6058282  -0.5042557   0.3881317   0.2682490   0.2096205   0.5130834
  -0.0688198   0.0402924   0.1206968  -0.4179178   0.5569354   0.3497178
   0.5799601  -0.3918364  -0.1290031   0.1073495  -0.1677478   0.2546789
   0.5114245   0.4240398   0.0795706   0.9344930   1.1408749   0.3485137
  -0.1678401  -0.0434561   0.0693736  -0.0150745   0.3660445  -0.0609946
   0.1757708   0.3588157  -0.7383622   0.0338527  -0.2333382  -0.3258511
   1.3086010   1.0255651  -0.4631953  -2.1669525  -0.4093321  -0.3941518
  -0.0310997   0.1541192  -0.0660504   0.0133117  -0.3109524  -0.5610613
  -1.5075169  -0.6774003  -0.3862913   0.2512883   0.3220862   0.5324458
   0.3821002   1.0025432   0.8743938  -0.7778759  -1.1179452   0.5005719
  -0.0449421  -0.0950167   0.1135181   0.5099411  -0.8115356   0.3470987
   1.7050251   0.4141687   0.0108991   0.0740100   0.1587411   0.0931581
   0.7481853   0.7323969   1.5316177   0.2663455   0.3948673   0.1855040
   0.1390295   0.0413308  -0.0053264  -1.3158623  -0.4835782   0.1475909
  -0.7594776   0.4523894   1.3538921  -0.1271226  -0.1632007  -0.0736870
  -0.9375713   1.2697995  -0.5023886  -0.7013710  -0.3221511  -0.6946947
   0.1033927   0.2884892   0.0534403  -1.7817736   1.0134449  -0.6830602
   0.3394809  -0.1032597   1.8600738  -0.0830292  -0.1271535   0.0003233
  -0.2953087  -0.0590214   0.3730450   0.6239796  -0.1357649  -0.4275618
  -0.1646578  -0.1695671  -0.3340089   0.2455889   0.1707547  -0.6524243
  -0.3997857  -0.4206005  -1.4371667  -0.2728698   0.2331762   0.0981877
   0.4176489  -0.2199241   1.2867666   0.9910801   0.8922232   0.0748425
  -0.0841810   0.4927913   0.2072556  -0.3097184  -0.6662792  -0.5471119
  -0.0183796   0.2908372   0.3582563  -0.0780486   0.0658473  -0.0753966
   0.2546349   0.3667010   0.6258536  -0.1662700  -1.5768488  -0.6262113
   0.1133757   0.0071118   0.0688830   0.2450191  -1.6086251   1.6153457
  -1.3145547  -0.1518397  -0.5844649  -0.1808876   0.3218495  -0.1201015
  -0.9295781  -0.5207191  -0.2847193   0.1840301   0.0882639  -0.2844809
  -0.2314687  -0.0653462   0.2366619   0.9047930   1.5293953   0.7783566
   0.2785765  -0.8709246  -0.0953047  -0.0442861   0.0493928   0.1099316
   0.1301110   0.3200014  -0.0294672  -0.1101799  -0.8292010  -0.5268531
  -0.1530540   0.2640272  -0.1133962   1.2057411   0.4935888   0.5517777
   0.2399038  -0.7115584   0.8955531  -0.0943410   0.1797583  -0.2104928
  -0.3638420  -0.1257020  -0.9990677   0.5384923  -1.0963895   1.1002865
  -0.1696194   0.0732265   0.0035455  -0.1239231  -0.0648766   1.1269697
   0.8164491  -0.0071327  -1.0464116  -0.4114379  -0.0101931  -0.0782040
  -1.7946914  -0.5529559  -0.4721055   0.0614896   0.7560966   0.6607285
  -0.0452362   0.2305740  -0.0276058   0.1786089  -0.1138866  -0.5905225
  -0.5454028   1.1000177   0.5157523   0.0075069   0.1033734  -0.1599556
  -0.9186393   0.6262943   0.3703826  -0.0990524   1.4091990   0.0366661
  -0.1279961  -0.2006054   0.0763234  -0.2346495  -0.1647661   0.1378435
   0.3435413   1.3158005   0.3955979   0.2479901  -0.3997572  -0.0705110
  -1.1124718   0.3857198   0.9647765  -0.5110322   0.4276328  -1.2894673
   0.1902363  -0.1259556   0.0101162  -0.7205680   0.3871179  -0.5186957
   0.1987879  -0.2730485  -1.1205812   0.4250863  -0.1901639   0.1957652
  -1.4036893  -1.1750539  -1.5803044   0.7671387   0.0399523  -0.0017767
   0.2175046   0.2456508   0.1217593  -0.2557967  -0.2701414  -0.5563125
   0.2475627   0.7081624   0.6052573   0.3502860  -0.2598791  -0.1186023
  -0.3466058   1.0882541  -0.9888460  -0.7048028  -0.9002619   1.2333501
  -0.0808661   0.3804014   0.0186728  -0.2663527   0.7225428  -0.6365061
   0.5670955  -0.2341989  -0.1184120  -0.1080155   0.2147620   0.1134278
   0.6380530   0.6177083   0.3117482  -1.2121307   1.0956197  -0.1115187
   0.0672260   0.1190670   0.0136506   1.7697996   0.9088661   1.3064599
   2.3649265   0.7949148  -0.7720306  -0.2371307   0.0933116   0.0622685
  -1.7413302  -0.0850575   0.0090371  -0.5606647  -2.2629903  -0.2810304
   0.4721466   0.0576939   0.1391648  -0.5897522   0.6180639  -0.3279170
   0.5185245  -0.0555474   1.2222424   0.1395182  -0.0137259  -0.2105692
   0.8726043  -0.5818632  -1.0366660  -0.0967776  -1.3331794   0.2227662
  -0.3422640  -0.1372699   0.0605936  -0.1010982   0.3028447  -0.5726299
   0.1871295  -1.8864259  -0.0123173   0.0242532   0.3349466   0.1444987
   0.4625002   0.9025575   0.1951051   0.3848909   0.5462135   0.6295021
   0.0050720   0.0409778  -0.1795146   0.6681730   0.1303402   0.7358766
   0.3566725   0.7650258  -0.4368846   0.0794113   0.1188766  -0.3048885
  -0.4480119  -0.1722580  -1.1633399   1.5906347  -1.7111273   0.5546968
  -0.1257677  -0.1209215   0.0692496  -1.7149807   1.4440116   0.6817757
  -1.6188027   0.2701696  -0.1392290   0.0401716  -0.3658194   0.0677257
   0.2624015   0.0948928  -0.9621782   0.0202862  -0.7798108   0.9317976
   0.1557550   0.2063533   0.2067252  -1.1304550   0.3621218  -0.0065241
   0.0697539  -1.1199640   0.4934409   0.0079421   0.0983239   0.2010207
  -0.9533437  -1.2547658   0.0527940  -0.8003922   0.0646863   0.2841477
   0.2032042  -0.1591628   0.0333134   0.1670404   0.8809498   0.0700208
   0.7241860  -0.3303953  -0.4689918  -0.2126704   0.1702778   0.0284206
   1.0145867  -0.5067664   1.3823186   0.1552051  -0.9008232   1.1707343
   0.0092680   0.0981856  -0.2010699   0.0079283   0.1353344  -0.1235803
   0.7151029   0.0597141   0.6673070   0.3760037   0.1993949   0.3774995
  -1.2908121   0.4700905  -0.3539089  -0.2235965   0.4990220   0.1295267
  -0.1070227  -0.3152523   0.0577180  -0.3183247   0.6943978   0.8244636
  -0.6672109  -0.3690575   0.0588404  -0.0871753   0.0818032  -0.0203470
  -0.6259192  -0.3845112  -0.6138149  -1.8773721  -0.9327248  -0.7176606
   0.3681398   0.1148615   0.1404525  -0.5904065  -0.1576662  -0.0764737
   0.1807265   0.8751112   0.0156285   0.0303380   0.1053862  -0.0344242
   1.0180625   0.5169552  -0.9290809  -0.4773278  -0.1943740  -1.0054646
   0.1887976   0.1038675  -0.0998347   0.1650054  -0.6494234  -1.6431203
   0.2046395   1.1910582  -0.8790419  -0.0250630   0.3021666  -0.2392921
  -0.4837599   0.1908256  -0.9786846  -0.1071920   1.4283723  -1.1180993
   0.4327033  -0.2184128  -0.4362755  -0.7146444   0.9322647   0.3931506
   0.5814626  -0.4611503   0.0084456   0.2368274  -0.0652378   0.1695792
  -1.2402515   0.8151390   0.3465717  -0.1065305  -0.4724496  -0.6523000
   0.1468446  -0.1634500   0.2371861  -0.5615369  -0.1472517  -0.4618677
   0.2696200  -0.5532733   1.0332680  -0.0340495   0.0956413   0.0434305
  -0.2234556   0.3349599  -0.8323594  -1.0707111   0.0156575  -1.1752902
   0.0515560   0.1370594   0.0404105  -0.4941428   0.2896085   0.2266242
   0.9031783   0.4513825  -1.1138432  -0.0436258   0.2221387  -0.1516321
  -0.2626590   0.2605444   0.7122935  -0.3252121   1.3173843   0.4629269
   0.0981152  -0.0962959  -0.0050950   1.3017454  -0.2646410  -0.3633848
  -0.2920194   0.3023680  -0.8703680  -0.0403533   0.2993903  -0.0008165
  -0.7106506  -0.8792581  -0.4251680   0.5104137  -0.6111133   0.7832788
   0.2027017  -0.1264665   0.1202449   0.6040869  -1.2328148  -0.5210492
  -0.3467310  -0.1723930   1.7247367  -0.3102049   0.1247816  -0.0207375
  -0.1502594   0.3380297  -0.2050892  -0.3730820  -0.3237460   0.3561152
   0.1886339   0.0228910   0.1334536  -0.4891990  -1.0170764   0.0689159
  -1.5344580  -0.1166972  -0.1281504  -0.1558565   0.0094062   0.1863837
  -0.3627503  -0.5172579   1.2094420  -0.8379408  -0.2067360  -1.1486754
  -0.0016091  -0.0099010   0.3734276   0.2682007   0.1103976   0.5071575
   0.0223685   0.6688431   0.6092865  -0.1924835   0.0274778  -0.4539834
   0.0469383   1.9296778  -0.6847047   0.4413074   0.3849364  -0.8787581
   0.1975733   0.3335192  -0.0668023  -0.9685724   0.3232893   0.4617032
   0.6793402  -1.0319959  -0.2154166  -0.0319237  -0.3918817   0.2769348
   0.1217514  -0.5837830   0.0230294  -0.4645130  -0.3554168   0.3430183
   0.1615721   0.3570488  -0.0066772  -0.3115496   0.0440191   0.2693521
   0.2072219  -0.0751257  -0.4063036  -0.2848318   0.0627891   0.0112954
   1.1979282   1.9951871  -0.0697010   0.2067495   1.2320757   0.6565262
  -0.1846863   0.2727151  -0.1536444   0.3487879   0.4862747  -0.5625928
  -0.1907706  -0.5062774  -0.2423246   0.1359123  -0.0468294  -0.2547893
   1.4683895  -0.2605347  -0.7903929  -0.7603842   0.4325371   0.3320768
  -0.0108788  -0.3053056  -0.0506647   0.2680301   1.3805391   0.1879236
   0.5052682  -1.3783476  -0.4322725  -0.1059923  -0.0594631  -0.2489136
  -0.5652391  -1.0010758  -0.9423127  -0.3701078   1.2474599   0.3579000
  -0.1171282   0.0351987   0.0758958   0.2914706  -0.8952312   0.4582135
  -0.8329926  -0.0336527  -1.2268276   0.2291479  -0.1958926  -0.1841518
  -0.4452539   0.3853886   0.4041687   0.0048934  -0.1445002  -0.6031040
   0.2570556   0.0133259   0.2724009   1.3280772   0.7760641  -0.5612506
   0.8914089  -0.0483056  -0.9433495   0.0865572   0.1034347   0.2173930
  -0.1370658   1.3013062   0.0384626   0.6868712  -0.0392214  -0.0219405
  -0.1090914  -0.0534910   0.0504840  -1.4227176  -0.9533768   0.1175379
  -0.8671240   1.6356569  -0.4683547   0.0336726  -0.1878749  -0.1201554
  -0.1293954   1.0990810  -0.5141028   1.4609701  -0.3719245  -1.7575850
   0.0920362   0.0060373  -0.0130381   0.3130502  -0.9875248  -1.3660822
  -0.4522899  -0.1955856  -0.0115889   0.3020337  -0.0239142  -0.4018675
   0.2141774  -0.6495457   1.4959193  -2.7407411  -0.6675713  -1.1247335
  -0.3344820  -0.1751140   0.0287198   0.5527413   0.3428596   0.7308986
  -0.6704568   0.5994474  -0.4853869  -0.0204339   0.2021918  -0.1789312
  -0.7750488   1.1146539   0.5326869  -0.5989721  -0.1717661   0.3833668
  -0.0852520   0.2168290  -0.2741339  -0.1249634   0.2485638   2.0386665
  -0.0660660  -1.0871517   0.7583221   0.1042512   0.0928351   0.0416310
   0.4923483   0.6468822  -1.8047762  -1.1289788  -1.3629602   0.5272083
  -0.0576851  -0.2156032  -0.3075883   0.9802564  -0.1443581  -0.3412972
  -1.4048648   0.3686470   0.0133348   0.1043726   0.3130858  -0.2131733
  -0.2028392  -1.6352612   0.5810502   1.0069527   0.1057175  -2.2077511
   0.0445554   0.0703990   0.6293758  -0.3482185   0.1872371   0.8936118
   2.4965695   1.0538051  -0.6919667  -0.0439542   0.0062075  -0.1772463
   0.6325677  -0.4393965   0.2576936   0.6551553   1.3826200  -1.1803757
  -0.1778086   0.0792281  -0.2038604   0.6988565   1.5566082   1.1707148
  -0.2865425   1.2712448  -0.9640072  -0.0517639  -0.1086164   0.1061755
   0.2873450   0.2064060  -0.3922170   0.3267831   0.8890498  -0.7972792
  -0.1594996  -0.1265941  -0.2120819   0.3037081   1.0051796   0.3273848
  -0.1905879  -0.3273927  -0.3649657  -0.3050179   0.0084811   0.1745383
  -0.1111595  -0.6674210   0.8812036   0.0814157   0.8784797   1.3111552
  -0.5613767   0.0612053   0.2118262   0.4314921   1.1028060   0.2100292
   1.0221359  -1.1700984   0.4356893   0.0952064   0.1035388   0.4324543
  -0.7147590   0.4492150   0.9780505   0.0791333  -0.1586872  -0.4235613
   0.0945838   0.3342940   0.0607649  -0.1853861  -0.6320904   0.3878150
   0.8102445   0.4512840   0.1726314  -0.1546423   0.0367473   0.0851346
   1.3074229   0.2979775  -0.2310260  -0.1502987   0.6889404  -1.2431862
   0.2459566   0.3038509   0.0975208  -1.1224456   1.7352439  -0.0621504
   0.3502371  -0.2258834  -0.6669647   0.0219843  -0.1639640   0.0058356
  -2.2504839   0.6667743   0.0681232  -0.4642856  -0.1638775   0.1161509
  -0.2068041  -0.0727283  -0.1825809  -0.7891484   0.3252466   0.0811221
   0.5127940   0.2752464  -0.5670682   0.4163244   0.2579946  -0.1175854
  -0.3753047   0.4436986   0.4493117  -1.8296666   0.5625824   0.7711059
  -0.1731789   0.3066723   0.1151445   0.9927840  -0.9153404   1.6567991
   1.1995583   0.9452476   1.1586392   0.0718499  -0.1684613  -0.1128939
  -0.8186061  -0.7502504   0.8822726   0.5033524   1.2706270  -0.9432541
  -0.1968547  -0.1539834   0.1027831  -0.4445243  -0.1690464  -0.1661669
   0.0836654  -0.1741079   0.5595233  -0.6951889   0.1800525   0.0637705
   0.0247766   0.1079122   0.6657050   0.9988732  -0.8011777  -0.3005536
   0.1938266  -0.0141471   0.3225589  -1.3436452   0.2346753  -0.2611338
   0.1917762   1.5656302   0.8379967   0.0283282   0.0089041  -0.3324299
   1.2695487  -0.6156205   0.8974057   0.3216742  -0.5285873   0.1707653
   0.0352354   0.1110413  -0.1739722  -0.7844264  -1.0508744  -1.0056868
  -0.1077096   0.5094548   0.0899990   0.3526709   0.2211004  -0.2393542
   0.3964241   0.2070246  -2.3977551   0.6441771   0.1604410  -0.9096669
  -0.1384580  -0.2083400  -0.2971659  -0.0422377  -1.4408013   1.2299896
  -0.1398226   1.5651249  -0.5354287   0.1546872   0.1168961  -0.2231685
   0.3867903  -0.6777365  -1.5127094  -0.5018177  -1.2704115   0.3914373
   0.0666406  -0.3275614   0.3032592   0.1572245  -0.6044458   0.6053073
  -0.3113075  -1.0962893  -0.4704961   0.2085389   0.2209298  -0.0794223
   0.0015139   0.2844957  -0.3703985   0.7652847  -0.7389498  -0.6236943
  -0.2915306  -0.1188053   0.0471900  -1.0070292   0.3685391   0.2601838
  -0.3846558   1.3518110  -0.4431966  -0.2667055  -0.2268425  -0.4162560
  -0.1743725  -0.8276504  -1.8281664  -0.4467220   1.1861878   0.7104733
  -0.2380810  -0.2113357  -0.0943042  -0.3106097  -0.4076481  -0.6185340
  -0.2175280  -0.0358533   0.6897057   0.0265011   0.1714254  -0.2263665
  -2.0651910   0.0870799  -0.3732901  -0.9594760   0.8115215  -1.2043683
  -0.0178705  -0.1519143   0.1198336  -1.2482457  -0.3508646   0.3551946
  -0.3067923  -0.9094069  -1.2382606   0.1090272   0.0499559   0.0820365
   1.2967374   1.4252155   0.5905416   1.2094771  -1.1424236  -0.5100987
   0.1845896   0.1380081   0.0599352   0.3870645   1.0152991   0.3875920
   0.9302580   0.5563525  -0.5583979   0.1418932  -0.1258469  -0.0686422
  -0.0382073   0.2713882  -1.0671288   0.7020223   0.9612449  -0.8356763
   0.1340856   0.2177140  -0.2034918  -0.2068406  -0.8831107   0.0819806
   0.1645015  -0.4457621   0.3158113   0.0820715  -0.0672009   0.2560945
  -0.1400843  -0.1841835  -0.9717003   0.1060547  -0.3143632  -1.3623125
   0.0513682  -0.1990900   0.1196785  -0.0565810  -0.5403786   0.3821071
  -0.0183244  -0.0774645  -0.6825252  -0.4053219   0.1385467  -0.0985683
   0.0728391   0.3301758   0.8300274  -0.1752923  -0.7546556   1.9993536
   0.2443088  -0.0316296   0.0885732   0.5163910  -0.3532831  -0.3413210
   0.2921694  -0.4093711  -0.5674418   0.0841473  -0.2059353   0.1725344
  -0.7475048  -1.1246956  -0.4364056   0.1188180   0.7721267   0.0094200
   0.0698644   0.3234102   0.0218587  -1.1533860  -1.1768639   0.5045337
  -0.9478269   0.6989593   0.7709895   0.1379779  -0.1251999   0.1801207
  -0.0282771   0.2353992  -0.0962259  -0.9683845   0.5156682   0.4656195
   0.2798542   0.1316752   0.0359850   0.7079018   1.7887743   1.1929379
   1.1929916   1.0060203  -0.5710658  -0.1926334   0.1614355   0.1030865
   0.5549377  -0.1801397  -0.9914281   0.6404812  -0.5710225  -0.1954357
  -0.1900115  -0.1636175  -0.1052729   0.4974284  -0.7965319  -0.9777764
   0.5402513  -0.3953626  -0.2913776   0.1065510   0.0382839  -0.1980940
  -0.5556320  -0.0622672   0.3435807  -1.0110912   0.5876122  -0.2004493
   0.1494350  -0.0764757  -0.2435785  -0.5078501  -0.1880688  -0.3582659
  -1.1146082   0.0751503  -0.3640002  -0.1984945   0.1225800   0.3194908
   1.0339035  -0.8733562  -0.0474190   0.4938514   0.6554969   0.1280392
   0.0779080  -0.1092592   0.1170244  -0.1556466   0.3001145  -1.1508858
  -0.4853572  -0.6657534  -0.3234659   0.3039289   0.0163034  -0.0935760
   0.9992791  -0.5601069  -0.3347826   0.0206890   0.4456268   0.1917090
  -0.2600108  -0.2906687  -0.1785535  -0.0520695   2.0137041   0.1272095
  -0.4874461  -1.7319591  -0.1978024  -0.0606606  -0.2524094  -0.2222377
  -0.1447545  -0.9049418  -0.1846736  -0.7285379   0.4937963   1.0213032
  -0.2046088  -0.0440514  -0.1092689  -1.7685379   0.0128356  -0.8089687
  -0.0952576  -0.0259241  -0.1100514   0.1295964   0.0455340  -0.0883892
   0.6292556  -1.4793945   1.4289748  -0.0398749   1.4615489  -1.1094135
   0.2570515  -0.0263767  -0.1320303   0.5741513  -0.7119902  -0.6477763
  -1.3754793  -0.6642856  -0.0850727   0.1959440  -0.1243330  -0.1638406
   0.4252577   0.7358940  -1.0620315   1.0863542   0.6152020   0.4234761
   0.0184954  -0.1895153  -0.1049529  -0.3859197  -1.3033171   1.0760699
   0.0155186   0.2888757   0.4831459  -0.0412813  -0.0617063  -0.0466797
   0.1545252   0.6915761  -0.8533900   0.1489458   0.3339533   0.2880408
  -0.3297239  -0.0399239  -0.2717531  -0.3651083   0.1151044   0.2215877
   0.2458861  -1.2925600   0.0983808   0.0742958  -0.0085757   0.3463115
  -1.0710012   0.0003840  -1.2483709  -0.1588305  -1.1444722   0.6139801
  -0.2086568  -0.1821906  -0.4167826   1.5007881   0.9597892  -0.2328219
   0.2032651   0.7786233  -0.5808976  -0.1996957  -0.0312954  -0.2809062
   0.5680043  -2.1282986  -1.0057988  -0.9770135   0.8282300  -1.0686044
  -0.3021807   0.1859530   0.0892625  -0.6018968   0.7412629   0.9793088
  -0.3331392  -1.1839195   0.8797849  -0.0300372  -0.0888797   0.2747515
  -0.0052621  -0.8081693  -0.7154766   0.1416380  -0.2680268   0.9944529
   0.1802689  -0.1711097   0.2485436   0.3509911  -0.8992907  -0.1642174
  -1.3610503  -0.0805091  -1.3744637   0.3714419  -0.4303606  -0.0468167
   0.1762263   1.3667239   1.2766437  -0.0028218  -0.1518580   0.8424551
   0.2085740   0.1679679  -0.3366250   0.5224910  -0.2404574  -0.7706277
  -1.1591458  -0.3007230   0.2594245  -0.0928608  -0.3686961  -0.0719033
   1.1504806   0.8109890  -0.0096262  -0.5350589   0.0159548   0.5763325
  -0.4411684  -0.1134932  -0.0707667   0.4311115  -1.0945164   0.6654079
  -1.4109235  -0.7091965  -0.0469100  -0.3162427   0.0664309  -0.0427147
  -1.0370753   1.3385048  -1.0462965   0.1790294  -1.6348083  -0.3429388
  -0.0747081   0.0733107   0.0069810   1.9569910  -0.0545187  -0.6273756
  -0.2386797  -0.1240268   0.0285049   0.0291499   0.1490224  -0.0338145
   0.3127682   0.2352442  -0.4103229  -0.7249867  -0.3847340  -0.6715892
  -0.0558224  -0.1703460  -0.3298181  -0.8843332  -0.3426474   2.0927696
  -0.3980219  -0.4217021  -1.1261338   0.3384961  -0.3023332   0.0604952
  -1.5891495  -0.9074705   0.4533829  -0.3126548  -1.5654217  -0.1592972
   0.2981766  -0.0556015   0.0380840  -1.7954950   1.2961478  -0.3053926
   0.7552795  -0.4943672  -0.0596129  -0.1103262   0.0956654  -0.0133653
   0.0249510  -0.1832040  -0.6242702  -0.6102019   0.3902475  -0.5168227
   0.4735774   0.0882901  -0.1876483  -0.4502191   0.7292922   0.3100510
   0.1595834  -0.6678566   0.2436206  -0.1581185  -0.1165596  -0.0641756
   0.8598648  -0.1809672  -1.6846761   0.0011878   0.1309801   1.0537661
  -0.1690387  -0.1091564  -0.1926868  -1.1575553   0.9314525   0.6349073
  -0.2473944  -0.3916768  -1.0657665  -0.0474641   0.1062011  -0.2699299
  -0.5725859  -0.0888440   0.6464609   0.1856844  -0.0050085   1.7459542
  -0.4029723  -0.0527782  -0.0523305  -0.2701431  -0.3151452  -0.2917247
   0.0690300   0.1317591  -0.3486463  -0.0413128   0.2618948   0.0389583
  -0.3857510  -0.5284369   0.4573556  -0.2831425   0.6545160   0.9142798
  -0.3093860   0.0008149   0.0287286   0.8810838  -0.1323808  -1.2311611
  -0.8524770  -1.6963467   0.3020056  -0.2044240   0.2668730  -0.1708352
  -0.0111684  -0.3932385   0.0388839   1.3251501  -0.9089072  -0.1395043
   0.0943394   0.0516177  -0.0377910  -0.3857061   0.6919633  -0.8946085
  -0.4968597   0.4477282   0.7034206   0.4813019  -0.3204902   0.2423958
  -0.5967289  -0.2154226   0.4716805  -0.1757631  -0.5482063  -0.0215550
  -0.1336762   0.1492156  -0.0376785   1.7177878  -1.0752422  -0.2446174
   0.9845734   0.3090699   0.9733709   0.0302884  -0.0331035   0.1819234
   0.3301035  -0.8304612   0.1592311  -0.7343162  -0.0199984   0.8019460
   0.1098256  -0.3167391   0.0506220  -0.0060965   1.3316188  -0.9706330
  -0.3504458   0.9253786  -0.2783180  -0.0566232   0.2042002  -0.0863796
   0.5823871  -0.3067759   0.2018152   0.0936820   1.1961835  -0.1313512
  -0.0646750  -0.0591650  -0.1041710   0.7976015   0.5567032   0.7599834
   0.3987931   0.8533758   0.9444723  -0.3280737   0.0904041  -0.2048022
  -0.1712513  -0.8300823   0.3846398   0.2645990  -0.2572329   0.8781458
   0.0223016   0.1911246  -0.0931760  -0.1428708   1.7307198  -0.4107556
  -0.4355242   0.0716353   0.2178219  -0.2555990   0.1271375   0.2441944
  -0.5519332  -0.3017500  -1.1951076  -0.7508926  -0.1125531   0.3155400
  -0.0405192  -0.0669257   0.0701242   0.5037103  -1.5169939   0.1756183
   0.4857504  -0.8879085  -1.1063869  -0.1657899  -0.1301772   0.0812483
  -1.4085903  -0.7635574  -0.6784467   0.4973234  -0.0306639   1.6696487
   0.0419235  -0.0274612   0.1698647  -0.7102632   0.5306978   0.2076841
  -1.3689300   0.6964981   2.1483095   0.0093502   0.1064259   0.1947689
   0.5767834   0.1771262   0.8083995  -0.6334395  -0.3591266  -0.5754138
  -0.0324344   0.1031160  -0.0901587  -0.2386511   0.7741944   0.2186308
  -0.1371543   0.4057109  -1.2686635  -0.3492531  -0.1486050  -0.1362135
   0.5521379  -0.3358557   0.0495049  -0.7121723   0.0687568  -0.7118272
   0.0267512  -0.0292761   0.2705096  -1.3140847   0.2104919   0.1688869
  -0.3967085   0.3408174  -1.4463510  -0.3268949  -0.4314492   0.2536076
  -1.0618944   0.0480961  -0.0566625   1.2748499   0.6674360  -0.3037242
   0.1115772  -0.1699357  -0.1873584   1.5195845  -0.6607676  -0.0986091
   0.5599240   0.9509538   0.8478814   0.3130452   0.3050627   0.1712959
   0.4774872  -0.3392390  -0.4941753   0.5225672   0.0201038   1.2164534
   0.0765072   0.2765336   0.3239386  -0.8366220   0.7916905  -0.3072345
  -0.3767889   0.1225571   0.4393714  -0.0128602   0.0966843  -0.0316494
   0.1638818   0.5289706  -0.4488873  -0.1026064   0.0639363  -0.4509167
  -0.3171457   0.1422755   0.1199431   0.6988626  -0.8474251   0.0261797
  -0.0420841   0.2060578   1.2605817   0.1928136   0.2089529   0.2946362
   0.6610916  -0.0595283  -0.2667024  -0.0424448   0.3618430  -0.2796624
  -0.4644842  -0.0107343  -0.0822016  -0.8194720   0.3112914   0.1507632
   0.8915067  -1.3568001  -1.5052673   0.1906662  -0.2079389  -0.0957242
  -0.6056121   0.2220558  -0.0182036  -0.1813212  -0.6883218  -0.4778991
   0.0925392  -0.3970078   0.1348442   0.0452639   0.4045078  -0.9471270
  -0.2333641   0.9818955   1.1190759   0.1845545  -0.3306653  -0.4328226
  -0.3722382  -0.8804102  -0.1526453  -1.2789629   0.1070894  -0.1510799
  -0.1330600  -0.1773341  -0.0620085   0.1318138  -0.3408482  -0.5606644
  -0.5814659  -1.8012428   0.0603458  -0.2467586   0.0815385   0.0605039
   1.1131093  -0.1126430  -0.2446801  -0.9935671  -1.1423872   0.9205134
  -0.3219833   0.1446345   0.2462408  -0.0010149  -0.7018530   0.6802316
  -0.4477771   0.9924263  -0.1622076  -0.1755168   0.0623375  -0.2248493
   0.0482087   0.2223858  -0.0427760   0.4706657  -0.5108765  -0.7291988
  -0.0202232  -0.1902498   0.1131490  -0.5113297   0.8784271   0.5113920
  -0.6028196   0.6421802  -1.7307186   0.0683955  -0.2574850   0.1889864
   1.3732847   0.6193404   0.9513699  -0.5106585   0.5917878  -0.5236760
  -0.0348402  -0.2053425  -0.2750728   0.1381909  -0.2815683   0.8480628
   1.2931209   0.2705972  -0.1541255  -0.2102165   0.0873682  -0.0591730
   1.0842819   0.0726870  -0.9426665   0.1969940  -0.7089398   0.1720948
  -0.0000762  -0.0137870  -0.0710741   0.0038921  -0.2512882   1.2079327
  -0.1074491   0.7008223   1.2908909  -0.4413176  -0.2543076  -0.1211697
   0.1584394  -0.2825028   0.0515264   0.9694503  -0.3318386  -0.0417230
  -0.2585787   0.1518859   0.1564873   0.4202771  -0.2888712   0.5861170
  -0.7147741  -0.1897998  -0.3163352  -0.1914110   0.1779290   0.0956077
   0.4180227   0.5993585  -0.2816025   0.6872275   0.0460278   0.1656569
   0.1897153  -0.1708622  -0.2946986  -0.9271412   0.0528937   0.7311285
  -0.1351653   0.2940534   1.2306753  -0.0255738  -0.1800672  -0.1218631
  -0.0436400   1.2614581   0.0160625  -0.3366295   0.6525317   2.0044889
   0.1515521  -0.2373717  -0.2695999  -0.1550314   0.0029067  -0.2878848
  -0.7335993  -0.8223993   0.9653173   0.1974765  -0.0892827  -0.2677397
  -0.6418784   0.0484296   0.4300909   1.0741669   1.5568370   0.0988566
   0.0335018   0.0495357   0.0149548  -0.3526937   0.4686346  -0.7265696
   0.4081079   0.0868134  -0.8647475   0.0094552   0.0211326  -0.1131644
   0.4726132   0.2106352  -0.1472701   0.9125789   0.4182683   0.4863046
  -0.0644463  -0.2387289   0.0057633  -0.2746394  -0.4055286  -0.5796549
  -1.3372933  -0.3100442   0.2951358  -0.1566765  -0.0576049   0.1224083
  -0.0504145   0.3836788   1.0780660   1.0030852   0.3771370  -0.7136559
   0.1393490   0.5976604  -0.0185523   0.7393481  -0.2597540   1.1839822
   0.9503791  -0.0684644   0.3117874  -0.2918084   0.2116212  -0.0083854
   0.6733795   0.8686776   0.8836669   0.5555924  -0.2894293  -0.4576169
   0.3221359  -0.0521844  -0.0426019   0.2475396  -0.8358607  -0.3667907
  -0.5884265   1.0313352  -0.1048780  -0.2019111  -0.1200531   0.0049818
   0.1004984  -0.6741089   1.3153300   0.2263039   0.2057196  -0.3862769
  -0.0652345   0.1360872  -0.1615095  -0.1872665   0.7279134  -0.2011393
   0.8183519  -0.2266715   1.2444283  -0.2210607  -0.0267248   0.0239169
   0.6635249  -0.9937332   1.1549109   0.1828779   0.2006509  -0.2720817
   0.0907895  -0.0389222   0.0543962  -0.6632283   0.3835599  -0.4725380
   0.0175397   0.2107394  -0.1574693  -0.0884259  -0.5442366  -0.1070203
   0.2913273   0.4434656   0.0344650  -0.4087986   0.7740087   0.7703810
  -0.2045445   0.2135115   0.0826664  -1.1372158   0.6184799   1.4228473
  -0.0869510   0.3133890   0.9501145   0.0006348   0.3555938   0.0350666
  -0.8534174   0.2112032  -0.0390215   0.5352652   1.6898179   0.2092063
  -0.1148614  -0.0556159   0.1750693  -0.7999860   0.0895365  -0.6472615
   0.0990988  -1.1894177  -0.8913540   0.1936998  -0.1381307  -0.2591386
  -0.2917343  -0.4507687   0.1202390   0.0433118   0.3870656   0.7420463
  -0.1197465   0.3539840  -0.1384439  -0.3023067  -1.3839352   0.1008418
  -0.6765299  -1.1795091  -0.3016297  -0.0061848  -0.0713085  -0.0511392
  -0.2638936  -0.6013328   0.8913718   0.3974882   0.4159656   1.8475326
   0.1737248  -0.2066823  -0.1857767  -0.5800903   0.3143968  -0.6380573
   0.9620311   0.7461327  -0.1511140  -0.2267610   0.2486037  -0.0809296
   0.3046379   0.1290099   0.7623858  -1.2123727  -0.6940755  -0.6995214
   0.0340373   0.2189671   0.2804267   0.3438004   0.9354464  -0.6644861
   1.6178231  -0.0118908  -0.5180650   0.2039587   0.0090192  -0.0925323
  -0.6417568   1.0065904   0.0446770   0.5141971   0.1165589   0.6169539
  -0.1465957  -0.2150565  -0.0154009  -0.4217292  -1.4814886  -1.6266686
   0.1405148  -0.1575020  -0.6856900   0.2783111  -0.0869274   0.1087095
   0.5767068  -0.4774968   0.3400985   0.4708656  -0.4315301  -0.7822354
   0.3069110  -0.1213616  -0.2105144   1.2299110   1.3503548   0.8396166
  -0.7501865  -0.6390222  -1.6319478   0.1901555  -0.1938347   0.1177030
  -0.7864575   0.5204021  -0.1923819  -0.5217631   0.2776194   0.8329197
   0.0005860  -0.1824513   0.0089498   0.1657432  -0.0743315  -0.1194974
   0.1165929   0.9658929  -0.3928544   0.0317370  -0.0532277   0.0401310
  -0.4701873  -0.5698609  -0.2186995  -0.1150435  -0.2589220  -0.8149261
  -0.4342352  -0.4073882   0.0040284   0.4881053   0.5952020   0.4840496
   0.9482209  -0.5121682  -0.7866376   0.4185155  -0.2546513   0.0656481
   0.8654632  -0.9584343   0.0877581  -0.6434107  -0.0949795   0.8884769
   0.1024601   0.2160183  -0.1277014   1.5917686  -0.3555389   0.4138095
  -0.8016571   0.3772533  -0.7845118   0.0472503  -0.2785130   0.0828276
  -0.4082421  -1.4289386  -0.1971805   0.7795298  -1.0069107   2.0715226
  -0.3461916   0.1778172  -0.2043623  -1.0513917   0.0548997   1.8051070
   0.8688141  -1.0460351   0.5253230  -0.1050713   0.4321744   0.1004079
  -0.1706076  -0.1909929   1.4454642  -1.2712811   0.4999163  -0.3320906
  -0.0123163  -0.0655525  -0.1060562   0.8972655   0.2999220  -0.5332507
  -0.2172132   1.4782371   0.0579470   0.2506383  -0.1631267   0.0178632
   0.6573543  -0.0338729  -0.5017954  -1.2897104   1.0125210   1.3528306
  -0.1595955  -0.2546922   0.0398847  -0.4173972  -1.8030686   0.1102536
   0.9163372   0.7355426  -1.0944779   0.2685966   0.0051868  -0.3025515
   0.3293761  -0.3745134  -0.7064768  -1.4282523  -0.6778138   1.0843135
   0.1307586  -0.4170283   0.0568482   1.8098263   0.9777293  -0.4334794
  -0.2510855  -0.6160108  -0.5432590  -0.3516132  -0.4072823   0.0176855
  -0.6176764  -0.6624553  -1.1872592   0.2125063   0.4861337   0.7903078
  -0.4234665   0.2757580   0.1163175   1.5527588   0.5508324   0.7313799
  -0.3622732   0.2230924  -1.0491298   0.0941517  -0.0080606   0.2548749
   0.3724655  -0.9079683   0.2933365   0.5124299   0.8945438   0.4405962
  -0.2767805   0.0476279  -0.0939261  -0.6599228  -1.7792214   0.4970056
   0.2037677  -2.1069267   0.2266132  -0.3142422  -0.1089164   0.1506232
   0.2754017   0.5239157   1.3037175  -0.9420012  -0.8623496   0.8393742
  -0.2213898  -0.0543605   0.0373018  -0.4128744  -0.1775008  -0.2975476
   0.0841001  -0.4444708  -0.6186414  -0.0024951   0.1114530   0.3317077
   0.1599136  -0.7073657  -0.7661437  -1.6435891   0.8043096  -0.7771501
  -0.0703648   0.1201508  -0.0486781   0.7085463   0.8069610   0.8526026
  -1.0713374  -0.2376668   0.3812603  -0.0017852   0.4210342  -0.0032361
   0.3497317   0.7667081   0.7499669   0.3165715  -1.3437574  -0.2689493
   0.3103197   0.2792013   0.0042932   0.3167301  -0.4783162   2.1020977
   1.4544885   0.8410013   0.8464339  -0.3901046   0.3679559  -0.1408060
  -0.5778939   1.1148642   0.2091796   0.2696054   0.0871647  -0.7540697
  -0.2501158  -0.2821994   0.1040519   2.0631177   0.3502703   0.7350253
   1.2388874  -2.5838258  -0.7767785   0.2780732   0.0275654   0.1607878
   1.2074990   0.2206404   0.1353651   0.4049298  -0.4167354   1.3937129
   0.2215080  -0.2816284   0.1437051  -0.4291683  -0.4020066   0.0386459
   0.6449831  -0.3449570   0.7132728  -0.2125983  -0.0582243   0.1553929
  -0.0726140   0.4238095   0.4864813  -1.5668839  -1.1201952   0.1579670
  -0.1059605   0.1895523   0.1435306  -0.1281340   0.9038971  -0.0806095
  -1.0760436   0.6783658   0.0725976   0.1210859   0.0134461  -0.0695427
  -0.4645806  -0.6729635   0.3091506  -0.4254834  -0.4170151  -0.1531649
   0.0341045   0.2270551   0.0795734   0.6713810   0.9940713   1.1610494
   0.3013607  -0.6206742  -0.1549727   0.1539054   0.1081239  -0.0005260
  -0.5999509   0.1484193  -0.3338777   0.9280112   0.4474852   0.7953414
  -0.2692979  -0.0712576  -0.1148051   0.3373169   0.8946049   1.0443275
   0.5055205  -1.0985770  -0.5821219   0.0790988  -0.3985980  -0.2860797
   0.0988574   0.4042958   0.1239721  -0.1751619  -1.0406701   0.3205609
  -0.1084270   0.0634319   0.0108928   1.4293364  -0.1138773   0.7329683
   0.5869409  -0.2584162  -0.1429571   0.0875177   0.0357154  -0.0092830
   0.6143360  -0.0822854  -0.7582680   0.4052475   1.1355856   0.3183997
  -0.2655716   0.1904161   0.0358919  -0.0355501  -1.0437983   0.2514299
   0.7544516   1.5494050  -0.2663940  -0.3347910  -0.0308419  -0.1948854
  -0.9982095  -0.4277046  -0.0183771  -0.6029770   0.2290921  -0.9117424
   0.0098342  -0.1719737  -0.0222425  -0.0544011   1.1020765   0.2186074
   0.1284325   0.0381423   0.3738044  -0.2176552   0.1345228   0.2309325
  -0.1994303   0.1885545   0.4196915   0.2791191  -0.4824888  -1.1369326
   0.0476541   0.2306153  -0.2083798  -0.6293869  -1.0673955  -1.2424377
  -0.3904022   0.1353724  -0.4527116   0.0341438  -0.0429832   0.0397885
   0.1861183  -0.3492326   1.6061534  -0.4141770   0.5237118   0.2208477
  -0.1729973   0.2904680   0.1782125  -0.1887934   0.5449394   0.0744603
  -0.8940387  -0.5790655   0.8639806  -0.0319382  -0.2057882   0.5801368
   0.5537925  -0.9590665  -0.2874500   0.0069711   0.9506732  -0.8309796
  -0.0266885   0.2346972  -0.0684250   0.3120018  -0.8977967   0.0367517
   0.2439857  -0.3998732   1.5061679  -0.2664772   0.0190841  -0.2272669
   1.4013689   0.2995194   1.0170343  -0.1399685  -0.4070491   0.6885718
  -0.0296283   0.1539705   0.3581473  -0.0945929   0.2448379   1.3641177
   0.1169311  -0.1668617   0.0223608   0.2336769  -0.1907800   0.1833457
   0.6697673   0.2417580   0.2991737   1.2411715   0.3903638  -0.0052061
  -0.0778870  -0.1580325   0.0084082   0.5775781   0.3305229  -0.1860592
  -1.3468388  -0.6814615   0.8473541   0.0197465   0.2720421   0.2390318
  -1.9993089   0.6182632  -0.6512176  -0.8284281   0.4134749  -1.4438509
  -0.1620875  -0.0965543  -0.1899287   0.9297766  -0.0500437   1.1333613
   0.2927608  -1.2866552   0.2786402   0.1025583  -0.1957051   0.2340062
  -0.2312612  -0.6632938   0.3149909   0.4290029  -0.0736328   0.4203177
   0.0024690   0.2111402  -0.1554105   0.7206980  -0.6832420  -0.4638145
  -0.5883846   0.4018494  -0.4673728   0.0718185   0.0354002   0.1787082
  -0.3847127  -0.1433181   0.5480242  -0.2992747  -0.2474257  -0.0762409
   0.0864813   0.0658543   0.4406212  -0.0133914   0.0486896  -1.1800087
  -0.0727480   0.9929785   0.0748193  -0.4489009   0.1405380  -0.2727685
  -0.4806406  -0.0941893  -1.0838024   0.1073637   0.3499306   0.5150438
  -0.0358022   0.1770796  -0.2279577  -0.1702969  -0.8647773   0.1789038
   0.0661441  -0.0729062   1.4592457  -0.0699754  -0.1261759   0.0914141
  -0.1154256  -0.9945404  -0.6817921  -0.3398758   0.8063378   0.1365611
   0.5467725  -0.0716280   0.1537672   0.0356064  -0.3891914   0.0398831
   0.5160334  -0.1448169   0.9222444   0.2151001  -0.0331676  -0.0409889
  -0.3534267   0.2117168  -1.6967026  -0.4715142   0.0902798  -1.8157665
   0.4839875  -0.3179714  -0.1219650   1.0773996  -0.2253337  -0.4016312
  -0.5946211  -0.6724601   0.3668277   0.0421845   0.2378938   0.1013629
  -1.2882834  -0.1952284   0.0611035   1.4545109   0.6087966   0.6266560
   0.1524733   0.2521558  -0.0365137  -0.8516714   0.3630492   0.6029263
   0.0693952  -1.8761560  -0.5643701   0.1209526   0.2250518   0.0755325
  -0.9833209   1.2490270  -1.5295464  -2.0440805   0.2954762  -0.5304340
  -0.2398076  -0.0403947  -0.0321483   0.5175896  -0.0801460  -0.6267485
  -0.5932184  -0.8441107  -0.7754978  -0.3653696  -0.1766629  -0.0293770
  -0.5060341  -0.0902419  -0.0740204  -0.8179727   0.0494293  -0.6454248
  -0.3835395   0.0036776   0.1134507  -0.3078592  -0.1812048  -0.4308755
  -0.9366757  -0.9442189  -0.1835602   0.1096148   0.3271221   0.1040475
   0.0414928  -1.6710117  -1.7415242  -0.4632752   0.4208143  -0.1495423
  -0.1089359   0.0258408  -0.0901788  -1.0189885   1.5614895   0.0644169
   0.3819356   0.1824654  -0.2567051   0.1458640  -0.2620840  -0.2817361
  -0.7634792  -0.6053570  -0.4806791  -1.5075812   1.6031092   0.6646801
   0.1295701  -0.0567280   0.0386077  -0.0628974  -0.6283914  -0.9969642
   0.6087865  -1.4578431  -0.5500206   0.0192748  -0.0919207   0.1871302
   0.0318557  -1.1848163  -0.2612290  -0.1706577   0.4262382   0.6138993
  -0.2733883   0.1582096  -0.2050665  -0.8570424  -0.2824166  -1.1168670
   0.7088870  -1.2167087  -0.3989281  -0.0372266   0.1498633  -0.0578736
  -0.9020750   1.9498064   0.7489021  -0.7334541   0.1492956   1.0085534
   0.2461706   0.0187631  -0.0588187  -0.8186677   1.4329997  -1.3712527
   1.2992663  -0.1152832  -0.7869734  -0.0034020  -0.0031943   0.0185541
  -1.2746994   0.9663536   0.6960798   0.7332011   1.0779086  -1.5281643
  -0.2609586  -0.0165267   0.4427079  -0.2535703  -0.0631174  -0.9292523
  -0.8266639   0.5959592   0.2073589   0.1110132  -0.2422102   0.2251782
   0.3481033   0.1160347  -1.3377508  -0.7668471  -0.2004571   0.4553241
   0.0339114   0.1095564   0.1426168   0.5327928  -0.2176440   0.1289134
  -0.5821873   0.3546838  -0.1699223   0.0846270  -0.0753031   0.0366991
  -1.7702007   0.4220679  -1.1895932  -1.0166385   0.9965103   0.3765749
   0.1109785  -0.1846893  -0.0615010  -1.0070094   0.8079571  -0.1542018
  -0.1368273  -1.1749571  -1.2473989  -0.0394715   0.0691397  -0.1264727
   0.8753948  -1.3498696   0.3254930  -1.0645885   0.9116373  -0.4990302
   0.2765757   0.1590504  -0.0056300   0.4827715  -0.3789400   0.0024312
  -0.8524143   0.2881464  -0.2243562   0.2811958   0.3146696   0.2444070
   0.1585926   0.1093938   1.0349630   1.0478491  -0.3573689   0.9923883
   0.2644869  -0.0077405   0.2314469  -0.0634839   0.4702544   1.1041843
  -0.2731762  -0.6216272   0.4190929   0.4144331  -0.0669696   0.0817407
   0.3285796   0.8498860  -0.7421161   0.5876719  -0.3936795   0.0544073
   0.3582644   0.0211356   0.0952836  -0.2411772   0.3461256  -1.8130587
  -0.9776937   0.5210984  -0.3985527  -0.0036867  -0.2986439   0.2855622
  -0.1841166  -0.7038503   0.8344761  -0.4231743   0.5570116   0.7483390
   0.2118980  -0.6099043  -0.0738557   0.5630614  -0.2355717   1.0039410
   0.0733028  -1.0101539   0.4923276  -0.1851243  -0.0716727   0.1443059
   0.6646655   0.4446575  -0.7816150  -1.5669702  -1.0639321   1.5201770
   0.0928463  -0.2302762   0.3248684  -0.1503063  -0.1381368  -0.4288016
   0.5964228  -0.5334239  -0.6233740  -0.0726004   0.0944277  -0.1909614
   0.4388329  -0.3729706  -1.7616227   0.0690900   0.1506043   0.4657706
   0.2090778   0.0053152   0.0203753  -0.3442041  -1.1989887  -0.0969576
   0.2012419  -0.0200241  -0.1750767  -0.0553403  -0.1111516   0.1885778
   0.4404944  -0.4947418  -0.1447058  -0.9795280  -0.6628100   0.2561485
   0.3466287  -0.0309617  -0.0412086  -0.9555635  -1.1204533  -0.1362430
   1.4059877   1.1305497   1.3518712   0.0517086  -0.0448373  -0.0423781
   1.3822720   0.9885026   0.4606923   0.0115873  -0.6603924  -0.6929556
  -0.0646250   0.1376820   0.3300396   0.3640306  -1.2929550  -0.1539367
  -0.4538978   1.3424551   0.5617314  -0.0105848  -0.2892757  -0.1138245
   0.1676814   1.5537991   0.0598089  -1.8309449   0.4431199   0.4126768
   0.1555536  -0.1316894  -0.2607945  -0.2410615   0.9209962  -0.1302160
  -0.8584025   0.2998512  -0.1891799  -0.0792117  -0.0435961  -0.0223817
   1.2609613  -0.5509071   0.8737465  -0.1212878   0.5315314  -0.8130601
  -0.2498388   0.1291298   0.0948615  -0.1339069   0.7676562   1.0562443
  -0.4055862   0.0050774   0.7100989  -0.0019840   0.0746363  -0.3775705
   0.8039498  -0.6391737  -0.9272160   1.3541090  -0.3478658   0.2315732
   0.0177779   0.1888493  -0.2148952   0.7767938   1.1213101  -0.5780103
  -0.0236481  -0.4568842   0.1373618  -0.1940182  -0.0139016  -0.0620545
   0.1809692   1.1206184  -0.3850980   0.2446224  -0.3830273  -0.4253487
  -0.1214381   0.2353970  -0.1877290  -1.3936855   0.0158546  -0.2671916
  -1.5326405   1.3851628   1.4965618  -0.0534432  -0.0337177   0.2591268
  -0.9115685  -0.8583638   1.0232746  -0.0514190  -0.3593197  -0.7235804
  -0.2222911   0.0887215  -0.1660225   0.7750956  -0.5707521   0.0662068
  -1.0428489  -0.0468127   0.1602461   0.0154767   0.0879532  -0.1775100
  -0.6038455   0.4666174   0.0739896   0.6978093   0.9242445   0.5969667
   0.2096090   0.1854502   0.1051661  -0.1545654  -0.3693956  -0.4504099
  -0.3720171  -1.1787454   0.5989158  -0.0659185  -0.2341710  -0.5194577
   1.4007101   0.7464289  -0.8846785  -0.1644656   0.7757660   2.5518075
  -0.1333791  -0.0375645   0.0186088   0.9313149   1.0370672  -0.3743502
  -1.1673121   0.0717308  -0.7075303  -0.1011581   0.2148985   0.1894212
  -0.0751667  -0.5861638   0.6761338   0.2923337  -0.1492117   1.2680159
   0.2929449  -0.0370546  -0.2936037  -0.8196462  -1.2131643  -0.3932498
  -0.8179574  -0.4066584   0.3619114   0.2236780   0.1013317  -0.2313212
   0.4351811  -0.2656257   0.1961379  -1.7183545   0.3625749  -1.4185607
  -0.3632926  -0.1262775   0.2256994  -0.3170708  -1.1804045  -1.1328772
  -0.3470491  -0.2715904  -0.9392485  -0.0867031  -0.1992677   0.2730248
  -1.0266985   0.4472588  -1.3364054  -0.7973866   0.6651536  -0.8017889
   0.3243994   0.0828070   0.1167627  -0.3327989   0.4873119  -0.9798640
   1.8605836  -0.6550076  -0.2804707  -0.4557211   0.0305860  -0.3692557
   0.7342335   0.0321711  -1.0814915  -0.3228853  -0.6965361   0.7477401
   0.0025045   0.1321269   0.0926251  -0.5757389  -0.4085108  -0.0835371
  -0.2265789  -0.1111076   0.6361731  -0.5373739  -0.1542440   0.1215305
   0.3926523   0.6995457   0.6125545   0.4787947   0.2968175   0.5194967
   0.0597977   0.0333444  -0.1272011  -0.8977935   0.5558569   0.3866450
  -1.0095020   0.1798538   0.3806088   0.0310600   0.1120944  -0.2570079
  -0.6337528  -0.5527891  -1.1355817   0.7473781   0.4827381   0.2175249
   0.1311801   0.3137019  -0.1271489   0.0411118   0.0567091   0.7834221
   1.5348726  -0.9938267  -0.9263855  -0.1364999  -0.2052717  -0.0268872
  -0.3051942   0.0893225   0.0678768   0.2676704  -0.2364671  -0.6117514
  -0.0270705   0.2183221  -0.2811962   0.3775043   0.2111787  -0.2561524
   0.5126220  -0.7422809   0.4727079   0.1863779   0.1674573  -0.0583651
   0.1764909   0.3906862  -0.6458167   0.5458433   0.2442518   0.9496086
   0.1786589   0.1744762   0.2964153  -0.2381547   0.1888469   0.2842983
   0.5649033   0.2713538  -0.3442937   0.0129762   0.0906135  -0.1365885
   0.7640300   0.0726986   1.3407101  -0.3886420   0.8012272  -0.6979971
  -0.1148552  -0.2476453  -0.1057041  -1.0517372  -0.5735187  -0.1878471
   0.5766836   1.5068677   1.1229817  -0.0690075   0.1505021   0.2244949
  -0.6931866   0.4562598   1.8946349  -0.0879251   0.8434774  -0.0216836
   0.1541584  -0.3314298  -0.1129688  -0.6797053  -1.0564326  -1.4745622
  -1.6044094   0.3385836   0.3424810   0.1573030   0.3706404  -0.2206905
   0.2549522  -0.2876990   0.3558442  -0.3978296   0.2552900  -0.3069651
  -0.4083995   0.0123005   0.3963868   1.8749638   0.8247200   0.8836933
  -0.4503946  -0.0549831  -0.4086960   0.0278452   0.0804569  -0.0172141
  -0.6196898   0.0248611   0.9781470   0.0310245  -0.8379247  -0.1560153
   0.1100638   0.1853001  -0.2046091   0.4275745   0.1365927   0.0092315
  -0.2906939  -0.5885381  -0.3290595  -0.0619273   0.1171761  -0.1630902
  -0.8496491  -0.2434705  -1.2658775   0.0423989  -0.5176041   2.1127943
   0.1586865  -0.0580253   0.4308650   0.0171833  -0.7927630   1.4492077
  -1.0374090   0.3731661   0.7671373  -0.1231291  -0.0897781  -0.1336377
  -1.4273001  -0.7721716   0.2914237   0.3207059   0.6908151  -0.0858655
  -0.3260308   0.1059459   0.0728031   0.2308961   0.4170529  -0.1342951
   0.3599813  -0.3356676   1.1949907   0.2317234   0.1999361   0.3814922
  -1.7769654   0.3296750   0.4459433  -0.0819012   0.0481676  -0.4612169
  -0.2960314  -0.1965125  -0.0926484  -0.6186709   0.6651741  -1.1010473
   0.1135030  -0.4217715  -0.7254358   0.3283183  -0.2937571   0.1260870
  -0.4333088  -2.0006055   0.2061556  -1.5478594  -0.5379948   1.1423755
  -0.0663899  -0.0061654   0.0095801   0.5546247   0.3668728   0.8315742
  -0.1149548   0.1517878  -0.2308422  -0.0072098  -0.0637558  -0.1357663
   0.2193861   1.1856008  -0.4565819   1.0024740  -0.8122229  -1.0623445
   0.3550664  -0.0438568  -0.1518355   0.3577781  -0.2584959   1.4022980
   0.5119306   1.1106904  -0.6166469  -0.0661508  -0.0644059  -0.0914808
   0.6668564   0.2165976   1.1850811   0.4043257  -0.9236401   0.9082136
   0.0618364  -0.0891633  -0.2082606  -0.3358300   0.3461365   0.3547453
   0.3519039  -1.2882065  -0.0604629  -0.3033130  -0.1259695   0.0649851
   1.1967247   0.1719320  -0.2513212  -0.0367706  -0.0312551  -1.3992690
   0.0760257   0.0253014  -0.2653791   0.1471983  -0.1084777   0.7505308
  -1.3780076  -0.1856246  -0.7115348   0.0022346   0.0509711  -0.1002277
   0.9747930   0.7138366   0.3599693   0.9198559   0.6587067   1.4673856
   0.3497063  -0.4211107  -0.1400989  -0.2569345   0.2824802   0.1254641
  -0.3447724  -0.2917320   0.7083662  -0.2475165  -0.3486497   0.3751725
   1.1415264  -0.3567231  -0.2761966  -1.2663190  -0.2593573  -0.9812955
   0.1687033  -0.1514530  -0.3691345  -0.3615090   0.0320600   0.5511214
  -0.0307669   0.2467527   0.5661348   0.1425565  -0.0172575  -0.0886675
   0.8302846  -0.2361268  -1.1050911   0.2137269   0.5163994  -0.5759463
   0.2651036  -0.2959419   0.2248660   0.1041375   0.3409020   0.3185027
  -0.6553793  -0.5471979  -0.9321414   0.0643592  -0.2757512   0.0340804
   0.6741916  -0.3206758   0.3200101   0.9034039   0.9451410   0.3503234
   0.2149373   0.4576147   0.0928594   0.7335929  -0.0130092   0.5433082
   0.0869733   0.6921337   0.9981839   0.1262341  -0.1651262  -0.1998296
  -0.9831315   0.3850361  -0.2969661  -0.7003944  -0.3112646   1.0517599
   0.2768386  -0.1578434   0.1149108  -0.0103680   0.5763796   0.2212986
   0.0969834   0.0125623  -0.0112594   0.1810663   0.3023093  -0.0996921
   0.4913639  -0.2272146  -0.2748220  -0.2742519   1.2850396   1.3656756
   0.1417834   0.0754942   0.0397401  -0.1106662   0.7414983  -0.4313951
  -0.3461146  -0.1524965   0.5986600   0.1363855   0.0627352   0.0846116
   1.4810318  -0.4728954   0.3572281  -0.4223924   1.6964519   1.3624260
  -0.0152561  -0.2003676  -0.2237481   0.2651866   0.2171721   1.3187101
  -0.8394172   1.4333995  -0.1605342   0.1138770  -0.0270434   0.2563815
  -0.7547158   1.2641202  -0.3125080   0.3640039  -1.0373539   1.0397006
   0.0625032  -0.0718546  -0.1487670  -0.0117774  -0.5936916   0.3006692
   0.0325684  -0.1077688   1.5826654   0.0812701   0.3628891  -0.0741621
  -0.7341649   0.2641019   0.6710287  -0.0108454   0.6967594  -1.1560976
   0.3365389   0.0802509  -0.1175017  -0.1035703  -0.4371006   0.9492263
   0.1425775  -0.7885702   0.2369736  -0.5454707   0.1803769   0.2204231
   0.3573389  -0.5700005  -0.9517568   0.1323132  -0.6893441  -0.2352133
  -0.0293956  -0.1771856   0.1084936  -0.9857242   0.5675917  -1.1396360
  -0.7330962   0.7013580  -0.1654764   0.1734353   0.0079325   0.1867561
   0.4641452  -0.7444444  -0.4541296  -0.6090284  -1.3146705  -0.8891919
  -0.2291737  -0.0858828  -0.1124968   0.2601442  -0.3838068   0.1330920
  -1.5843018   0.6986051   1.1365290  -0.0589575   0.0922884   0.1559175
   0.9211183  -0.9182656  -1.1726784  -0.2660642   0.7826197   0.9597907
   0.2425570  -0.1773866  -0.1296917   0.5872326   0.0150708   0.4754674
   0.3660125   0.4086455  -0.9409684   0.0159648  -0.1271177   0.1634929
  -0.3218181  -0.6299024  -0.6333760  -0.1422916  -1.9303012   0.5370270
  -0.0547940   0.2749712  -0.0888052   0.2782831   0.3790110  -0.4056258
  -0.1340818   0.1694634   0.2191912   0.2307429   0.1514888  -0.1684798
   0.4132240   1.2809639  -0.6761573  -0.0856876   0.9481799   0.4766927
  -0.4334281   0.0273026  -0.3503153   0.1912394  -0.3052651   1.2693764
   0.2361565  -0.4744712   1.1209974  -0.0903970  -0.2797525  -0.1093020
  -0.8341390  -1.2582674  -0.4614373   0.9286099  -0.7208648  -0.3966693
   0.0935979  -0.3805101  -0.2065571  -0.5173441  -0.6736890  -0.3718416
   0.4502589   0.3974187   0.4704002  -0.1195204   0.0732455  -0.0693052
  -0.9248938  -0.7058553   0.9570008  -0.4983305   0.3938509  -0.9892743
  -0.1708364   0.0384860  -0.1383729  -0.5939879  -0.0477106   0.0443417
   0.3293011  -0.0076916   1.3044936  -0.0167667  -0.0009632  -0.2860296
  -0.5726031   0.6643262  -0.8440698   0.6506703  -0.0058674   0.3670011
   0.0374378   0.1936570  -0.0649315   1.3526424  -0.0861387   0.8418758
   0.4787577  -0.6031603   1.0767470  -0.5422346  -0.0102384   0.1539098
  -0.0951826   1.7880776  -0.0481435   0.9604576  -0.1319742  -0.9484448
   0.0656352   0.0003171  -0.1222211  -1.0562557  -0.4388675   0.3088971
   2.0899507   0.4605560  -0.8285066   0.1117522  -0.1967628  -0.2274167
  -0.4878279   0.3774345   0.1271718  -0.1441132   0.8210693  -0.7106511
   0.3181547  -0.2740352   0.1103248  -1.2655148   0.0755659   0.1278233
   0.6974640   0.9014834  -1.5241809   0.2868334  -0.3856665   0.3700762
   0.9156477   0.7589665   0.4047114   0.8179539  -0.0945843   0.3216974
  -0.3956832   0.1246106   0.2893938  -0.4501161   0.4219180   0.4330558
  -1.4174145   0.2370005  -0.3948355  -0.0907965   0.5380705  -0.1127898
  -1.5724598  -0.3873620  -0.5197908   0.4418926   0.1402416   0.2117874
  -0.4713202  -0.0508867   0.0546628  -0.4583266   0.4913058   1.7349545
   0.7679575   0.3634125  -1.5776649   0.0564174   0.0298402   0.1136284
  -0.2814591  -1.4471846   0.6499751  -0.3065474  -1.1983180  -2.0036419
   0.1566707  -0.3371594   0.1098992  -0.5091797  -0.7553961   0.4292660
   0.9348447   0.7511899  -0.0137511  -0.0359813   0.0893004  -0.2188506
  -1.4949621  -0.6028011  -0.6861890  -0.2407393  -0.8803303   1.0655977
   0.4297247  -0.4134095  -0.1012929   0.5283030   0.7910109   0.9792698
   0.4070825   0.0599385  -0.8384535   0.1875974  -0.2221119  -0.1438166
   0.7128117  -0.9397019  -0.9962504  -0.0630567   0.2646259  -0.8368098
  -0.0347593  -0.1280462  -0.1296161   1.0792113  -0.1866110  -1.1088816
  -0.3124411  -0.2403253  -0.4323273  -0.0218559   0.0999364  -0.1930012
  -0.6889732   0.7239406   0.5929411   0.2708815  -1.1271615  -0.2992707
   0.1499915   0.1700592   0.1748260   0.6354934   0.5458745   0.4710393
  -1.2189755   0.6507376   0.7715895  -0.0112617  -0.1626324   0.0952639
   0.0378703   0.5725357   0.1538189  -0.6807757  -0.1133047   0.7308386
  -0.0740900  -0.0091897   0.3533715   2.0539501   1.3746464  -0.0149555
  -0.5025798   1.3825638   0.1981207  -0.1329383   0.2226658   0.0173242
  -0.2871051   1.1527397  -0.9937821   0.1726591  -1.2426756   1.3319340
  -0.0352365   0.0596695  -0.3276152   0.5867979  -0.5869356  -1.6675980
   0.7865289   0.7290830  -0.1875155  -0.0226289  -0.1579396   0.1063487
  -0.2487547   0.1303086  -0.4779681   0.4186652   0.6132077   0.0313109
   0.0519742  -0.0891157  -0.1301037  -0.6387098  -1.2546704   0.9883235
  -0.9622536   0.2252341  -0.1345708  -0.2478863   0.1541231   0.0536071
  -0.5233286  -0.4560113  -0.2839841  -0.1099578  -0.9229252   0.5563754
  -0.0337684  -0.0274590  -0.0316479   0.9546893   0.5541023  -0.2977917
  -0.8344905  -0.6284340   0.0866660  -0.1816382   0.0070726  -0.0136239
  -0.1272828   0.6070362  -1.0420608  -0.1464301  -0.0393886  -0.1084958
   0.0024575  -0.1981724   0.2086386   0.6191993  -0.1746708   0.3094747
  -0.6545993   0.1479605   1.6384007   0.2255385   0.0244722  -0.0333895
   1.1801294   0.0879726   0.6642903  -0.3938683   1.1317425  -1.0883308
  -0.0644653  -0.2462473  -0.1765774   0.0489140  -0.7989938  -1.8287328
   0.9371802   0.0448339  -0.9652212   0.2945694  -0.0325070   0.0879423
  -0.8773209   0.4351044   1.9243197  -0.2205154  -0.0304164  -0.1922767
  -0.1327134  -0.0804339   0.1718401   0.5828627  -0.0369788  -0.5511704
   1.1559495   0.3412765   0.9675273  -0.0524420   0.0897632   0.2822471
   1.1084354  -0.3498662  -0.4236413   0.6192624  -0.7154894  -1.1920410
   0.1840374  -0.0503698   0.0638523  -1.1102534   0.0182117   0.0461712
  -0.4975231  -0.1793395  -1.0620351  -0.1441635  -0.2397994   0.0624072
   0.9945137  -1.0269030   1.2996868   0.5095558  -0.0842444   0.1369504
  -0.2442461  -0.2592436   0.1191390  -1.0662404  -0.0683991   0.2971292
  -0.4944551   0.0897783   0.9861080   0.2003619  -0.3798577   0.1284050
  -0.3909640   0.1285617   0.0757151   0.9634704   0.6700848  -0.2370944
   0.0491528   0.0945100  -0.0065349   0.3235752   0.0123022   1.0407477
  -0.6003892   0.8182069   0.1479595   0.0585690   0.0588333   0.1989092
  -0.3909149   0.1096224  -0.3469592   0.4701208   0.0938282   0.4385232
  -0.0664099   0.2408009   0.0945322  -0.4283715   0.4968163   0.3414582
  -0.2727209  -0.2576235  -0.2972302  -0.1796673  -0.0171425   0.0578750
   0.7927887  -0.7975174   0.0235554   0.3719918   1.0533671  -1.2905790
   0.1718166   0.0997729  -0.0290514  -0.2139876   0.4242279  -1.1357166
   1.0204054  -0.0542343   0.6912918   0.0771027  -0.1704635  -0.2075896
  -0.7814704   0.6791334   0.1257054   0.7141151  -0.9952133  -0.8783044
   0.1392195   0.2166160  -0.1901749  -0.8671207   0.4681252  -0.4031292
   0.7479062  -0.6774003   1.5605293   0.1879303   0.2730600   0.2679249
   0.8191414  -0.4131639  -0.6807541  -1.4550092   0.1909302  -0.0633439
   0.0461832   0.1421363   0.3168516  -0.5813457   0.0309399   0.1051207
   1.0121648   0.8253100   0.4092993  -0.2824479   0.1067507  -0.3115738
   0.4464397   1.9847744  -0.6847020  -0.2594989  -0.7540531   0.2630638
  -0.1418178  -0.2382302  -0.0293417   0.2219845  -0.3914311   0.1681108
   0.8041254  -0.5433222  -0.8957614   0.1284328  -0.2469804  -0.4289941
   0.4646634  -0.1315222   1.2548583   0.8272097   0.0411445  -1.0171238
  -0.0759653   0.2633097  -0.4083371  -0.0344854  -0.7789585  -0.5005997
  -0.5548679  -0.1082330   0.7921558  -0.2331153   0.4770092  -0.3459242
  -0.5241419   1.1644149  -0.2602901  -0.8219548  -0.2700212  -0.5853592
  -0.2221551   0.0665886   0.0222109   0.1282105   0.0682612  -0.8278388
   0.7636343   0.6686102   0.7450292  -0.1433258  -0.1432187  -0.1300607
   0.2129858   0.2303469  -0.5155860   1.0328713   0.1079968  -0.8569064
  -0.3269058   0.2286349  -0.1103747  -0.4806228  -0.7058325  -1.6744909
  -0.5574393   0.5080219   0.4138082   0.1641867   0.0024447  -0.0190329
  -0.3340974   0.4584949   1.1947271   0.8579606  -0.3043918   0.5469904
  -0.0657189   0.0547818   0.1124863   0.7365593  -0.0434882  -0.4797021
   0.6889447   1.2091246   0.3120591  -0.0748772  -0.3000241  -0.2445530
  -0.0639057   0.4724563   0.3714667   1.1551708   1.2575582   0.8524622
  -0.0758706   0.2004125   0.0243926  -0.6632538   0.4668737   0.3178080
   0.4974150  -0.4765417  -0.7831125  -0.0181486   0.1024404   0.0831174
  -0.5269801   1.4363557  -0.3156753  -0.1372290   0.8136477   0.9021175
  -0.0608892   0.0869851  -0.4276626  -0.8539504   1.1006847  -0.6928399
   0.5076117  -1.0046381   0.2776425  -0.2579184  -0.1704741   0.3242802
   0.0102099  -0.3882311   0.3202421  -1.4917937   0.0896514   0.6853624
   0.1091524   0.0690857  -0.3221237  -0.2970172  -0.4651122  -0.0237309
  -1.2453784   0.3631778   0.2502417   0.1572661   0.2555036  -0.1956066
  -0.5431612  -0.0892350  -0.2769508  -0.3536675  -0.9798548  -0.7682376
   0.0282744  -0.2889024  -0.0595788   0.8568006  -0.2658358   0.9360744
  -0.5771316   0.6033141  -0.0882574   0.1860818   0.0063807   0.0765920
  -1.0100333   1.3496365  -0.7223618  -1.2250459   0.6022153  -0.6056922
  -0.3637892  -0.3370820   0.2626041   0.7487997  -0.5996591   0.0189983
  -0.3299196   1.6322522   0.1340561   0.0255309   0.0014111  -0.1388212
   0.7690716  -0.5614500   0.6142432   0.4257920  -0.5479230   0.3222071
  -0.2847063  -0.1124511  -0.0164246   0.0116038   0.0483796  -0.8820947
  -0.4429927   0.2253248  -0.6175615   0.1359729   0.4916586  -0.1685853
  -1.7530648   0.2870277   0.1305081  -0.4217692   0.5120028  -0.6043350
   0.1770361   0.1787016  -0.1981509   0.4091492   0.3038679  -0.5508126
  -0.8494847   0.1268571   0.0112004  -0.3348119  -0.1451917   0.3250925
  -0.2887528  -0.0873614  -0.7313679   0.5370947  -0.2102049  -1.4082124
   0.0378888  -0.1426109   0.2667314  -0.3102373   1.6156421   0.2540064
  -0.7264543  -0.9559799   0.0749798   0.2569493  -0.0023390  -0.2917254
  -1.1618569   1.0287104  -1.3586367   0.7954246   0.8769273   0.5575244
  -0.1001204   0.0255444  -0.1058105  -0.7379071  -0.2581773  -0.6776562
  -0.2136040   0.5463390  -0.5249710  -0.1461980  -0.0570438   0.1342352
  -0.7490140   0.6019904   0.3565228   0.3399076   0.6503827   1.0284949
   0.0030092   0.1656090   0.2267076  -0.2413239  -0.2445408   1.5487028
   0.3547392  -0.0625524  -0.7645520   0.2817937   0.0719444  -0.2665928
   0.3816669   0.9060637  -0.2718047  -0.3628157  -0.6636916   0.0922454
  -0.5283857  -0.1309338   0.1676428  -0.2230484   0.9854739   0.5843497
   1.3128839   0.2134158   0.7252907   0.0032375  -0.0573078   0.1477849
  -1.5167770   1.1476666  -0.5008769   0.4573709  -0.6308316   1.4044820
  -0.1743711   0.2892765   0.2254924   1.4730608   0.2197212  -0.6129066
   0.4987865  -0.4472308   1.1035061  -0.1591486  -0.1635511   0.0331593
   0.2474022   0.6953325  -0.4680809  -0.7315200  -1.1725492   0.5201668
  -0.1128827   0.1989536  -0.1729610  -1.3364975   0.1232377  -0.3542280
  -1.9524722  -0.5918027  -1.0567226  -0.1400496   0.1231363  -0.0351347
  -0.7511016  -0.0743687   2.3324781  -0.3581855   0.3170779   0.8157025
  -0.0855699   0.4276611   0.0198501   0.0340532   0.7222075  -0.3324901
  -0.1950299   0.2376283  -0.4858532   0.0395978  -0.1685470  -0.2320878
  -0.3262511   0.7066002  -0.7399920  -0.2156571  -0.7939312  -1.5988440
   0.0754251  -0.1754014   0.1844698  -0.5069910  -0.6336033  -0.7062976
  -0.0198076  -0.2115961  -0.3105970   0.1038738   0.1059625   0.0526941
  -1.1470610   0.2357418   0.7474306  -0.5111962   0.3237314   0.1971503
   0.0527240  -0.1898145  -0.1208802   0.7489328  -0.7824250  -1.0909585
  -1.1520592  -0.5119909   1.5093372  -0.0389120   0.1527611   0.2143870
  -1.4775505   1.1196525  -0.3897981   0.7067671  -0.3044316   1.0657176
  -0.0105917   0.0237300  -0.3510700   1.3588744   0.0858776  -0.8154955
  -0.8953538  -0.5754340   0.9874952   0.1601165  -0.1168676   0.2543904
  -0.4824628  -0.4979135   0.2892056   0.0599165   0.6964025   0.0963002
   0.2604148  -0.0501975   0.2308753  -0.8908169  -0.6144267   1.1585965
   0.9486767  -0.0352024   0.4935000   0.2530213   0.2539997  -0.2358320
   0.4811251   0.5876647  -0.6182046   0.2534624  -0.2332245   0.6650199
  -0.1738817  -0.0780488   0.1990952   1.6066506  -0.3251434  -0.9139982
   0.0702577   0.3051869   1.1928333  -0.1637912   0.1315348  -0.0138910
  -0.1159147   0.1528364   0.2191786  -0.2093204  -1.2028424   0.1577109
  -0.1836355   0.1318392  -0.1657582   0.7428845   1.4287297  -0.7803202
  -0.3399096   0.0044635   0.8359420  -0.0248103  -0.0914822   0.1010265
  -0.4522284   1.4001262  -0.0199410  -1.3982073   1.8887341   0.4841709
  -0.2005225  -0.3542387  -0.1406483  -0.3774307   0.6036818  -0.7899243
   0.2760033   0.8053892   1.3162918  -0.1653042  -0.0899609  -0.0667157
  -0.5775110   0.3436228   1.2364372  -0.0857146  -0.3661189  -0.1936251
   0.2365875   0.2115673  -0.2348694   0.5119391   0.8825614  -0.4352234
   1.0618103   0.6934909  -0.0704647   0.1237496   0.2312100  -0.0430178
  -1.7684093  -0.2640489  -0.6151641  -0.5174821   1.8244189   1.4644219
  -0.1524867  -0.2221971  -0.1049096   1.3490403  -0.5205015  -0.1543419
  -0.0761796   0.0344622   0.0528259   0.2660006  -0.2042331  -0.0911325
   1.0778966   1.2155092   0.9644131   0.6432394   0.1844956   0.7570575
   0.1342321  -0.1831069   0.3095562   1.0585236   1.1902202  -0.1039193
   0.8149010  -0.9506666   0.5925873  -0.2615388   0.1284149   0.1903965
  -0.2524938  -0.4112970  -0.4103419  -1.2603683  -1.1403609  -0.1664950
  -0.0396611   0.0464352  -0.1828390   0.1114028  -0.3498879   0.7124876
  -0.4009334  -0.1418683  -0.1440918  -0.1710007   0.3940104  -0.1267354
  -0.3374462  -0.8007632  -1.5875300   0.7198361   0.1123370   0.3147803
  -0.0258711   0.1740644  -0.3976462  -1.1139957  -1.0277669  -0.4957113
   1.1543480  -0.1254424  -0.0301844   0.1124407   0.0600504   0.1226835
   1.0302846  -0.8155159   0.0063740  -2.0592793  -0.0668708   0.6414200
  -0.2655806  -0.1922783   0.2926645   1.1222529  -0.5629589   0.6027078
  -0.8905777  -0.2929117   0.0593308  -0.3221948  -0.0418665   0.2187812
  -1.0299123  -0.4246136  -0.4603949   0.5288807  -0.4598186   0.5681867
   0.2304749   0.2823255   0.1451793   0.3409149   0.7390920   1.0752367
   1.6232097   1.7640056  -0.0236051  -0.1223689   0.0849574   0.0689207
  -1.3262097  -0.1917978   0.5199719  -0.0175043  -0.6120297  -1.3320770
   0.3684525   0.1357582  -0.2276029  -0.0224515   0.2934231  -0.6145806
   0.8440052   0.0236402  -0.6607556   0.1113746  -0.2894859  -0.1799453
   1.2640034   1.7033332   1.5948446   0.1276851   0.4033863   0.2846374
   0.1475774  -0.0547209  -0.1557261  -0.7554144   1.8165451  -0.5963371
  -0.2358776   0.1748275  -0.1538848   0.0974909  -0.1359106  -0.0440940
  -0.5042645   1.5837193   0.1820134  -0.8270650   0.0935581  -0.8994555
  -0.1219892  -0.1584414   0.0909879   0.2205124   1.0464674  -0.0218829
   0.7139904  -0.5221769   0.6986961   0.1203806   0.1845411  -0.1109878
  -0.5126840   1.2528500  -0.6375731   0.0971162  -0.9195112  -0.9053143
  -0.0654261  -0.1605720   0.1899064   0.7855161   0.5708612   0.0079977
  -0.7754481  -1.0380537  -0.3048524   0.1493641   0.1895443   0.4181487
   0.1845850   0.9934960  -0.3254992   0.4249682  -0.5422002   0.2663415
  -0.2987916   0.3463282   0.0819243  -1.3778173   0.6917941   0.1918040
   0.4222305   0.6599033   1.1651609  -0.1428089  -0.0152847   0.2124416
   0.2373228  -1.0138343  -0.1367646   1.5595186  -0.6791224  -0.9366231
  -0.0960297   0.0464158   0.0734577  -0.1494281  -0.0892689   0.0550090
  -0.2602196  -0.1534435   0.0164257  -0.3162188   0.0558901   0.1420127
  -0.0591226   1.4973462  -0.0789110  -0.1866707   0.3787858  -0.6888978
   0.1498631   0.4341995   0.1563630   0.8855977   1.0055758  -0.3198478
  -0.3852515   0.3187125  -0.0001890   0.1053346   0.1733352   0.2317742
  -0.8334943   0.4445303  -0.7031007   1.3370561   0.1406882  -0.3577963
   0.2008846   0.3237292   0.2960970   0.0606351   1.3837991   0.3484353
   1.2387859  -0.1470622   0.1128142   0.0651175   0.0303967  -0.0522722
   0.1318760  -0.2260616  -0.7462981   0.1898837   0.5615310   0.1774404
   0.0625844   0.0039398   0.1225664  -0.3213815  -0.2011752   0.3055434
   0.7447293  -1.0548806   0.0410801  -0.2178658  -0.0275322  -0.1748025
   1.0432002   0.0270737   0.6286164  -0.0953108  -0.1654941  -0.0329356
   0.0527558  -0.0342884   0.0924066   0.3900235  -1.3591522  -0.8658758
  -1.0162473   0.2441985   1.1185020  -0.3439955   0.2579316   0.1571260
  -0.4412909  -0.5127100   0.5201582   0.4154505   0.0675174   0.5610251
   0.3651728   0.1686545  -0.0289266  -1.1019588  -1.8717898   0.1527998
   0.5251943   0.0982361   0.6384658   0.1922680   0.0433405  -0.1197225
  -0.1536554  -0.9298845   0.2899113  -0.4353497  -0.5252911   1.0891306
   0.0721375  -0.0102617  -0.1105695  -1.4708946   0.0334228   0.0747531
  -0.3215766   0.0401963  -0.3533925  -0.4144887  -0.0877410  -0.1228012
   0.6773759   0.3067093   0.4503855  -0.0089396   0.7863609   0.6562503
   0.1909293  -0.0521975   0.0013124  -1.1078790  -0.2432595   1.0168989
   1.2149497  -0.0555593   0.0217058   0.0655193   0.3451181  -0.4475979
  -0.1679956  -0.2763981   0.9465765  -0.5350005   0.2657650  -0.8550638
   0.2701917  -0.0746024  -0.0166866  -0.1862813  -1.2467437   0.3056906
   0.4340313  -1.6129675   0.4527833  -0.1155103   0.0405091  -0.4505025
   0.3379663  -0.7321365   0.5301528  -0.5453095  -0.8754591   0.1468284
   0.4273851   0.2713782   0.1737140   0.7780773  -0.4917437   0.2333281
   0.9624283  -0.4757809  -0.1887241   0.1886757  -0.1484722  -0.1926221
  -0.9235223   1.0870588   1.0273293   0.4108511  -0.5299992  -0.7272159
  -0.0883725   0.1660195   0.2160596  -0.1249480  -0.5585121  -0.8755390
   0.7748994  -0.6382776  -1.1168857   0.4139079  -0.1316177   0.0218237
   0.4228188  -0.4609987  -0.1165935   0.2800671   0.6314547   0.8528029
  -0.1864866   0.2197537  -0.1778674   0.7079016   1.4490106  -0.3443475
  -0.3434414   0.5404810   0.6966181  -0.0838094  -0.0267674  -0.2405971
   1.4650430   0.6483091   0.1290542  -0.4929713   0.1578598  -1.2885020
   0.0579038  -0.1955531   0.2947126   1.4045053  -0.7507910  -0.3864677
  -0.1990990   0.6099852  -0.1187636   0.2851498  -0.2176030   0.3166232
   0.3768595  -0.1488924  -0.2890516  -0.6380907  -0.6143897   0.3422721
  -0.0317063  -0.0704566   0.0636517   0.7031117   0.2730581  -0.1425808
  -0.3914488   0.6076741  -0.0849582  -0.4168764  -0.1243857  -0.0354646
  -1.3648613   1.0265853   1.3144634   0.0251444   0.4429546   0.0026758
  -0.0311265   0.1749706   0.1562828   0.7061374   0.1905974   0.1633176
   0.4831301   0.8370607  -0.5742809   0.2261749   0.0668046  -0.1045363
   0.0161648   0.6104508   0.0434185  -0.1863037   1.0357147   1.2915368
  -0.1646835  -0.0053767  -0.0619281   0.7136550   0.2628966   1.1939429
   0.0787960  -0.6063226   0.3108127   0.0059328   0.1285313  -0.4085567
  -0.5348379  -0.2572096   0.5088884   0.0301771  -0.1564494  -0.0763023
  -0.1820216  -0.1293278  -0.1333086  -0.1237425  -0.4165572  -0.3029708
   1.4602878  -0.9851688   0.2972581  -0.2841721   0.2880219   0.2406229
   0.3191248  -1.0427652  -0.9731072   0.7229202  -0.2077509  -0.1467076
   0.1195001  -0.1005709  -0.1374649   1.0257586  -0.5890650  -0.0605775
   0.5111319  -0.5428801   1.2115039  -0.2907669   0.0824507  -0.1205543
  -1.0056788   1.3312631   0.5371806   0.6876729   0.8563843   0.5037337
  -0.1022630  -0.1601241  -0.0261905  -0.0372428  -0.6162804   0.6663406
  -1.0400638   1.1175027   0.4801470   0.0253959  -0.1389000   0.1316794
  -1.1094201   0.4929414   0.5280861  -0.2351285   0.6420237  -0.0990782
   0.1811909  -0.1339104   0.1591813  -0.3815799   0.2423405  -0.6042206
  -1.0378665  -1.4777020  -0.4828957  -0.2644744  -0.2500273   0.2518308
   0.7303966  -0.6179331   0.4241583   0.2165543   0.1962216   1.0133372
  -0.4241614   0.1344047   0.0205581  -0.5783497  -0.0264451  -0.8178760
   0.1246119  -0.6504705   0.2016048  -0.0799014  -0.2646789  -0.3164271
  -1.6421246   0.4856755   1.1268549  -0.4361400   0.3201503   0.4087518
  -0.1479055  -0.0480834  -0.0253615   1.7035121   0.5359060  -1.0328883
  -0.1069533   0.8340729   0.5564660  -0.1776200   0.0621699   0.1232389
   0.4336003   0.3085932  -1.1508578   0.0756589   1.4382280   0.4397630
   0.0023065  -0.1930428   0.1036163   0.2066541  -0.1944759  -0.8737354
   0.4292796   0.6564526  -0.4784960   0.0621845   0.1540538   0.3762623
  -0.7716075  -0.7398539   1.1508032  -0.1176403  -0.3732248   0.8697984
   0.1830166   0.0275368  -0.1493816   0.7127390   0.1828072   0.6640638
  -1.0903507   1.0739252   0.9824064  -0.1168282  -0.2565605   0.2498795
   0.2668161   0.5740773  -0.0236356  -0.3078252  -1.1346153  -0.1918794
   0.0561879   0.1330431   0.0200055   0.3603423   0.6265930   0.1241971
   0.7736243  -1.0666306   0.6848406   0.0563665   0.0377054   0.1819757
   0.7892104   0.9114998   0.6161913   0.8178342  -0.2473175   0.9733306
   0.0345381  -0.2022273  -0.1202657  -0.0778783   0.5680592   0.8965812
  -0.0927095   0.2498505   0.4204152   0.3730226  -0.0935539  -0.3129249
  -0.8399569   1.2682435  -0.6600316  -0.7657577   0.3706774   0.0314449
  -0.0033849  -0.1593615   0.0967561   0.8548686   0.0311988  -0.7013187
   0.9155829  -0.1786879  -0.7215933  -0.0123043   0.0621061  -0.1695603
  -0.6890041  -0.5695189   0.5968386  -1.6522920   0.0260024  -0.4751034
  -0.0320035  -0.0276615   0.1508989   1.1995150   0.0955998   0.0312498
  -0.1162544  -0.1989820  -0.5383560  -0.1107843   0.0912393   0.1990565
  -0.0719408   0.1029821  -0.6479786   2.2470790  -0.4389416   0.5544303
  -0.3383514   0.1316615   0.0906100  -0.0034435   0.2923034   0.6384443
   0.2294454  -1.3047655  -0.4959508   0.0295839  -0.2439081  -0.1560192
   0.8054386   0.3433366   0.8886826   0.1759581   0.3751384   0.2545791
   0.1958797   0.1625984  -0.1024167  -0.0391906  -0.0414343  -0.7725322
  -0.2050524   0.2973095   0.1286028  -0.2472725   0.0611264   0.1986644
   0.9117505  -0.2189242  -1.2490460   1.2981970   2.2961411  -0.4085859
   0.0795647  -0.1173361  -0.0201437  -0.0312397   0.8538193   0.4333986
  -0.8065103   0.9141039  -1.6056665  -0.3460332  -0.0802322  -0.1097712
  -0.8549065   0.1098321   1.6075475  -1.2293415  -1.5229176   2.1678158
  -0.0369963   0.2257781   0.0040852  -0.2583584  -0.4352105  -0.9149975
   0.2194486   0.5096037  -0.6381922   0.0011972  -0.1907958  -0.1669546
  -1.5316540   0.1307291   1.3080351   0.1801602   0.2148738  -0.5060391
   0.1230952  -0.0240996   0.1102043  -0.2062644  -0.2002067  -0.1623495
  -1.7428256   0.1263184  -0.6917532  -0.2170398   0.3406190   0.2847002
  -0.3333800   0.7093112   0.9677796   1.1666580  -1.2163500  -1.5532037
  -0.0884160  -0.0099395   0.3123211  -0.5512168  -0.9094785   0.0604724
   0.6028935  -0.9541380  -0.2495879   0.3612162  -0.0953852  -0.2071078
  -0.3492383  -0.2479277  -0.9671425   1.6385665  -0.4248151  -0.0865389
   0.2945065  -0.1466841  -0.1091955   0.9881445   1.1997384  -0.0790646
  -1.1187176  -0.2703563  -1.4704589   0.0518212   0.2047620  -0.0489675
  -0.2521848  -0.9381366   0.4284991  -0.5392002  -1.1185977  -0.6386936
   0.1457808   0.1050882   0.0914924   0.0538504   0.0424271   1.6160638
   0.5004594  -0.0600617   0.4649751  -0.0475629  -0.1097130  -0.1876854
  -0.4453385   0.3406773  -1.0640190   0.3159353  -0.1197099   0.1198245
   0.1123197   0.1258102  -0.0696257   1.0135178  -0.1901397   0.3635549
   0.5505302   0.5711494   1.2454563   0.0821495  -0.2530716  -0.1648522
   0.7318097  -0.5890964   1.4195667  -0.7954488  -0.0640555  -0.0445630
  -0.1105802  -0.1596069   0.3781030   0.1062811   0.9339170  -0.3759275
  -0.5915780   0.1361315  -0.2870683   0.1306989  -0.0124139  -0.0455593
   1.2252033  -0.0740887  -1.7289525  -0.4542300  -0.4553481   0.5469533
  -0.2249120   0.5127192   0.3619146  -0.2537828   0.5826858   0.2285602
   0.4638545   0.7718746   0.4102500  -0.0724958  -0.2007599   0.0209985
   0.0342399  -0.3487820  -0.5057232   1.2990051  -0.0039321   0.7553538
   0.2014294   0.0731804   0.0061342  -0.2830290  -0.2350563  -0.4811036
   1.0828907  -1.0193467  -1.2121755   0.0497088  -0.0619303  -0.0799852
  -2.9039829  -0.0689012  -0.3381982  -0.4222012   1.5529960   0.7747284
   0.1750225  -0.0236970  -0.3059164  -0.2223441   1.4293249   0.6922672
  -0.3276416  -0.8813882  -0.7619134   0.0824731  -0.2840274  -0.1028528
   0.4936179  -0.0479068   1.6715823  -0.7808110   0.5347665  -0.6418840
   0.1486498  -0.1058304  -0.2961044  -0.0246159  -0.0951855   0.5647724
   0.5087078   0.2517468  -0.3802293   0.2162421   0.0594336  -0.2239220
  -0.0287108   1.3163076  -1.3635662   0.1220347   0.9884497   0.5794985
  -0.1593560   0.1963138   0.1212879  -0.0992145   0.6575639   0.1527229
   0.3500395  -0.4545759   0.2571396  -0.1267237   0.5148937  -0.0672993
  -1.2773593   0.6529799  -0.7501408  -0.4906641  -0.7635541  -0.8885885
   0.0505186   0.0236001   0.0056059  -0.2714821  -0.3464023   0.5737664
   0.7742964   0.1188247   0.6106554   0.1005705   0.0031475   0.4933524
  -0.4765501  -0.8974148   0.4641585   0.3891010  -0.2822360   0.7613120
   0.0054852  -0.2299260  -0.0733826   0.5436710  -0.3212585  -0.1793391
  -0.1901009  -0.2554568  -1.1313957   0.6639243   0.0543438   0.0014789
  -1.4192980  -1.0121281   0.3414684  -0.1713312   0.6626133  -0.2273265
  -0.0008843   0.0123431  -0.1329540   1.0359641   0.6325564  -0.6305469
  -0.9491760   0.3834214   0.3648556  -0.1038782   0.2298955   0.0117575
   0.5235846  -2.2118885   0.8891417  -1.1594309   0.6128199   0.0224222
  -0.2991771   0.1795088   0.2619400   0.0080936  -1.2521005  -0.8209767
   0.6621239  -0.1326742   1.6938859  -0.1718345   0.0611155   0.2211542
   0.1651158  -0.2147336   1.1887595   0.4697398   0.3188053   1.1517873
   0.3931356  -0.1163382  -0.0540021   0.5473307   0.1820950  -0.2955189
   0.1268708   0.8338520   1.3158619  -0.0795297   0.0010769   0.0545790
  -0.0521527  -0.6262203  -0.7383652   0.5581020   1.4186575  -0.7075902
   0.0756719   0.1326435   0.0332953   0.0350452   1.1363443  -0.1260473
   0.6150751   0.7989185   0.3429665   0.2757954  -0.1319224   0.2751765
   0.0609710  -0.6671638  -0.0192482  -0.0159322   0.9771231  -0.2654633
   0.0906070   0.1223231   0.1425946  -0.1346573   1.3330934   0.5059584
   0.6176761   0.8993930  -0.7467213   0.0193207  -0.1582007   0.0202329
  -0.5245876  -1.4876287   0.6854882  -0.4187170   0.4280619   0.9761380
  -0.4128397  -0.2179912  -0.4631477  -0.3977003   1.1282729  -0.5353141
   0.9063134   0.3041968  -0.9410421   0.0170686  -0.2228534   0.0983019
   0.1727220   0.4590835   0.5406077   0.3195036  -0.6406540  -1.0296342
  -0.0240002  -0.0683819   0.1299734   0.2865786   1.7365885  -0.5946010
   0.9166611   1.3128106  -0.1706305   0.2431568   0.1268454  -0.2678602
  -0.3692068   0.0202783   0.6948001  -1.8661117   1.7005948  -1.3556384
   0.0312064  -0.0512711   0.2711448   0.1704794  -0.4323792   0.0297290
  -0.3581262  -0.3620508   0.1539108   0.2864909  -0.0241876  -0.0133897
   0.1199838  -0.1128772   0.6137992  -0.6473292  -0.1940349  -0.4512829
   0.0125327   0.0795805   0.2252088   0.3538121  -0.4156056  -0.7580959
  -0.1062480   0.3591469  -0.0257471  -0.0315382  -0.0545224   0.2246265
  -0.5659408   1.9146024  -1.2521771  -0.3171453  -0.7253896  -1.0147443
  -0.1997793  -0.0460399   0.1228918  -0.1534392  -1.6884296   0.2014750
   0.8913313  -1.1464139   0.3050287   0.2316852   0.2887723  -0.2351210
   1.2344132  -0.4769093   0.0098581   0.6338589  -0.2198568  -0.0518020
   0.0331292  -0.0377771  -0.1798318   0.6384349  -0.0948633   0.6462075
  -0.2451420  -1.1953964   1.5221678   0.1665484  -0.2292399   0.1141739
  -1.3569405   0.2759630   0.1985002   0.7646701   0.0680475   0.1205522
   0.2732851  -0.0676368  -0.0258774   0.3956008  -1.2106556  -0.7915238
   0.0244931   0.3400330  -0.9076140   0.0202237   0.0982486   0.1339372
   0.1907711   0.1252706  -0.3509190   0.7624028  -0.1794144  -0.4125088
   0.0466224  -0.5390804  -0.0240805  -1.2826651  -0.2014230  -0.4891770
   0.2908595  -1.1327569  -0.5976271  -0.0793297   0.2735539  -0.1260669
   1.2656625  -0.4542484   1.3932498  -0.8963023   1.8434556   0.6008735
  -0.3455607   0.1783877   0.3979357   1.2111178   0.4333958  -0.6495088
   0.6082667  -0.0023379   1.0071346   0.0163709  -0.1006657   0.3618744
  -0.5797385   1.1918516  -0.4026167   1.6388883   0.5475029   0.1501991
  -0.3323263  -0.3403628   0.0161172   0.2798907   0.2266412  -0.0286525
   0.1929104  -0.1189570  -0.7855548   0.0629000  -0.0783902  -0.1939025
   0.4827222   0.8254066   0.1721088   0.1863525  -0.5751375   0.6096212
  -0.3413295  -0.3149270  -0.1871167  -0.0012838  -0.7255282   0.2003543
   0.7698942  -0.8188138  -0.2306404   0.0361861  -0.2013172   0.2220126
   0.7547565   0.1512632  -0.2944701  -1.7720201  -0.0566626  -1.0946988
   0.1827692   0.2967129  -0.1299298  -0.6917339  -1.8823523   0.6992928
   1.0945541   0.1435498  -0.3064956   0.1946319   0.1170969  -0.0915115
  -0.4030144   0.2544540   0.0305119  -1.3317761   0.5916897  -1.2289471
   0.0025564   0.1881137  -0.1707055  -1.2204913  -0.0624963   1.4376685
   0.7705291   0.7753000   0.1233787  -0.2729108   0.0681812  -0.1462947
   0.1710553  -0.4235457   1.0241953  -0.6497352   1.0030779   0.1228914
  -0.2772306   0.1090368   0.1105103   0.8715786  -0.4125891  -0.0744804
  -0.5788981   0.3154544  -0.4895987   0.0921972   0.1297545  -0.2483375
   0.0992274  -0.5289701   0.3255141  -0.0211350   0.1593680   0.2248110
  -0.0451382   0.0391792  -0.2186681  -0.9350607  -0.6578494   1.3203380
  -0.4353052   0.4939776  -0.3329240  -0.0133159   0.2365922   0.0755045
  -1.2365339  -0.1787177  -0.5245231   0.2868958   0.0743071   0.1925651
   0.1018254  -0.2265587   0.3201838  -0.2385710  -0.1193279  -0.4881788
   0.8461657   0.4077754   0.4746284   0.0439890  -0.0233178  -0.1410555
   0.5834814   0.5338611  -0.3391440  -1.0396105   0.7348030  -1.0243059
  -0.2161643   0.1738156  -0.1156701   1.4104471  -1.0705750  -0.0105007
  -1.1138718   1.2377310   0.4516585   0.5046060   0.0475560  -0.2774776
   0.1013572   0.6878882  -0.4880137  -0.1440246   0.4571962   0.3306158
   0.2116050   0.0242820   0.1153648   1.2335063   0.2197017  -0.4080127
   0.9779590   0.3242316  -1.2292154  -0.2056041  -0.3154411   0.1444736
  -0.3995677   0.2943160  -0.9381733   0.1773064  -0.3821358   0.7619643
  -0.0736857  -0.1031752  -0.5436963  -0.7214118  -0.5056327   1.1211149
  -0.8264516  -0.2447372  -0.1620334  -0.5009232  -0.2337671   0.0133850
  -1.2803218  -0.6515135   0.2843364   0.7797593   0.4062783  -0.9958150
  -0.1730053   0.0815926   0.5552024  -1.0808678  -0.9685220  -1.1808511
   0.5306384   0.0260888  -1.0490019   0.2927419   0.0689200  -0.0552648
   1.1411436   0.6462151  -0.0252279   1.0795994  -0.8313704  -1.1677610
  -0.1029911   0.0142177  -0.0854792   0.8711942  -0.7858098   0.4185551
  -0.2218115   0.1111343   0.4263555  -0.0071245   0.0080758   0.1347109
  -0.4302153  -0.9088996  -0.3737773  -0.7496728  -0.7412791   0.1233086
   0.0521607  -0.0456194  -0.1345756  -0.2926856   0.3368851  -1.2857469
   0.3127112   0.4326313  -0.6937436   0.0641277  -0.0949360  -0.1729371
  -1.1846960  -0.6373870  -0.0650522  -0.0299137  -0.9151625  -0.4595158
  -0.1338787  -0.2944862  -0.1400405  -0.8161348  -0.5868769  -1.0223396
  -0.2332811  -0.7374202  -0.6661615   0.0888590   0.0014035  -0.0550066
  -0.8006775  -0.5787581  -1.4884698   0.8870966   0.5164697  -1.1720857
   0.1124008   0.0727086   0.1446291  -0.6431316   1.0336754  -1.5564846
  -0.0101624   1.3258326   0.4263213   0.0095302   0.1468174  -0.1167655
  -1.1914665   0.8721560  -0.5298964  -2.0279114   0.2628332   0.7358476
  -0.0696642   0.1758324  -0.0631199   0.2583366  -0.1416751  -0.5942438
   0.5550124  -1.4066573   1.2866447  -0.0421100  -0.0130364  -0.0758836
  -0.7893442   0.4382283  -1.1214030  -0.0850038  -0.0915585   1.1104623
   0.0857175   0.1016510   0.0258739   0.1761118  -0.7050002  -0.0372550
  -1.3125733  -0.1840883   0.6109811  -0.0014503  -0.2400497   0.1108330
  -1.0252032   0.9072560   0.1703056  -0.4819565  -1.5999946   0.6759821
  -0.3142935   0.0614027  -0.1582026   0.3627755   0.3323811   0.7125005
   0.0944302  -0.5312771  -0.3391073   0.1515375   0.2254032   0.1053086
  -1.0380282  -0.2450840  -0.8382348  -0.9222153  -0.8095516  -1.0646449
  -0.2130194  -0.0647900   0.0508658  -0.5494590   0.6251803  -0.0626538
   0.6265890   0.2149273  -0.3357380  -0.1206124   0.4482047   0.2731296
  -0.3081125  -0.8872344  -0.2151877  -0.4859046  -0.9133026   0.4815844
  -0.0506981   0.0193506  -0.3959410   0.9635328  -0.6030081   0.0737457
  -0.7585450  -0.0380925  -1.6042375   0.1811742  -0.2231563  -0.0263513
   0.9316388  -0.1057895   0.9123739   1.4426371   1.4393773  -0.5739071
   0.1795778   0.0379034  -0.1674599   0.1228115  -0.4157549   1.0291718
  -1.2958650  -0.4793016  -0.3070932   0.2444550   0.2986859   0.2425882
  -0.2367799  -0.4448238  -0.1120162  -0.0135472   0.2813265  -0.8015287
  -0.0843468   0.1435090   0.1707994   0.0613480  -0.0202648  -0.0608227
  -0.4474240  -0.2050084  -1.1840745   0.3121760  -0.0491920  -0.0874301
  -0.1578920  -0.1341097   0.9068226  -0.7352633   1.3460418   0.0480834
  -0.0562909  -0.3379066   0.2738942  -1.1605177   0.9419026   0.6644270
  -0.8685625   0.6977917  -0.1805707  -0.2235314   0.1862524   0.2897251
  -0.2782801  -1.4586665   0.5530386  -0.6677375  -1.8490578  -2.1555381
  -0.0309324  -0.1541466  -0.0082575   0.1020926  -0.2320087  -0.1948090
  -0.6092186  -0.1428895  -0.9922605  -0.2204066  -0.0752537  -0.0956609
  -0.0420260  -0.6578418   1.1826698  -1.5783176  -0.4345746   0.3659631
  -0.1774726   0.0386532  -0.0315634  -0.1870470  -0.9218689  -1.6329912
   0.8176089   0.5684488   0.1490177  -0.0451286   0.0882926  -0.1325464
  -0.8283714   0.4792075   0.3635878   0.8932059   0.7541484  -0.1046735
   0.2887018   0.2384598   0.0123733   0.9932502  -0.4092059   0.4515350
  -0.4941853   0.8216668  -0.5947923  -0.2176222   0.3204172  -0.1243313
   0.1209180  -0.1199990  -0.2587585   0.1461507  -1.5608531   0.2838515
  -0.0490267   0.2995986  -0.1036798   0.0832175  -0.3943787  -0.0348796
   0.6093082  -0.4230482   0.7047433  -0.3332864  -0.1414312  -0.1006795
  -0.4882346  -0.8653777   0.2058161  -0.3740999  -0.5679840  -1.0249955
   0.0404899   0.2240880   0.1315446  -0.0690572  -0.5900911   0.5676694
   1.3853989  -0.4458972  -0.5518448  -0.1038518   0.2265356   0.0877570
   0.0255900   0.8042844   0.2959446   1.8578316  -0.4399856   0.6120832
  -0.0447633   0.1409298   0.0832058   0.5931035   1.2850504   1.1296469
  -0.1832945   1.1437640  -0.5592945   0.2250110  -0.1106700   0.0605141
   0.4741861   0.4131699   0.3375729  -0.7462716  -1.1234573  -0.0834719
  -0.0331448  -0.1683156  -0.3178326  -1.0011675  -1.3682155   0.2213420
   0.4934603   0.5614502  -0.6122538   0.0950837   0.0595699   0.0578736
  -1.0138395  -0.2563561   0.3943921  -0.2032012  -1.8525083   0.3664933
   0.3123540  -0.2610614   0.0044437   1.4637424  -1.9691411   0.9559171
  -0.0820469   1.0905169  -1.4745635  -0.3600816  -0.1227389   0.0531978
   0.2095090   0.1474780   0.1495747   0.3159375  -0.3475478   0.1239278
  -0.5071407   0.0695125   0.0218609  -0.7960331   1.6664129  -0.4958629
   1.5999033  -0.1323636  -0.4407415  -0.1486183   0.0391414   0.2042098
   0.9107007   0.1444432  -0.6029575  -0.6249520   0.7444211   2.3662227
  -0.1521188  -0.2300514  -0.0688621  -0.6409343   0.2609049   1.2368220
  -0.7305177  -0.9537814   1.3855954   0.1006447   0.0996749   0.3360656
  -0.3664466  -0.5991984  -0.5703877  -0.8504562  -1.0809747  -0.5717692
  -0.2008814   0.2744423  -0.2330018   0.7719507  -0.2466875   1.5712935
   0.3444188   0.0529425   0.0613773   0.0669867  -0.1427844   0.0304095
   0.1659241  -0.6256737   0.0521785  -0.1726325  -0.4149441  -0.7976957
   0.4465072  -0.3498954  -0.0763361  -0.3448629  -1.0401887   0.4276481
   0.1208414   0.5955270  -0.3282480   0.1295773   0.0102962  -0.3959009
  -0.8678441  -0.7482472  -0.8458618  -0.5208962   0.3781383   0.5301301
   0.1160727   0.0775056  -0.1061963   0.7112504   0.6015008   1.3309343
   1.4160576   0.5386887   1.2463629   0.0030977   0.1477019   0.0464411
   0.2415681   0.6881059   0.5022349  -0.2394236  -0.1988073  -1.1315807
  -0.2496403  -0.1815197   0.0763250   0.0390627  -1.3242435   0.4908883
  -0.1270815   1.1494346  -0.5609216   0.1817871   0.1886343   0.2099847
  -1.2943293  -0.3418774   0.8632154  -0.0356934  -0.7076284   1.2215989
  -0.1942450   0.1555392  -0.1117286  -0.6671735   1.0158012   1.1872683
  -0.0819663  -0.6564554  -0.6771832  -0.0095421   0.0717793   0.0851091
  -1.1876018  -0.6266357  -0.0832233  -0.1079720  -0.2897644  -1.0800672
  -0.0956134  -0.0808513  -0.3208627  -2.1078052   0.9799656   0.3847816
  -0.2704659   0.5951069  -0.0967927  -0.1341330  -0.7253091  -0.2436164
   2.0215499   0.1912861  -0.2227722  -0.6267819   0.1061518  -0.8389186
  -0.2823748   0.2123167   0.1878602  -0.3379068   0.5010884   0.7717154
  -0.7118754   1.0821990   0.3393188  -0.3669704   0.2058923  -0.3471500
   0.8589196  -0.0396718  -0.3039156   0.2743407  -0.4162447   0.1524690
   0.1588278   0.2871954   0.0634643   0.6621389  -1.1973302  -1.2785640
  -1.8221773  -1.2366387   0.2725576  -0.2426443   0.1177691  -0.1670033
  -0.2702792  -0.6159346   1.2917193   0.3087308   1.4802389   0.2565478
  -0.5509104   0.1129500  -0.3541738   0.5910304  -0.7759448  -1.0353365
  -0.2823658  -0.2538049  -0.0569435   0.0332408   0.1297369  -0.1720279
  -1.0603951   0.0559209   0.4697826   0.8814436  -0.2859230   0.7935410
  -0.1773299  -0.2048716   0.0443899  -0.4193594  -0.4878781  -0.7971280
   1.2354287  -0.9329349  -0.4754718   0.2013906   0.0503014  -0.1367754
   0.9983074  -0.0004122   0.8325853   0.6606911   1.0016148  -0.3891346
   0.2846930   0.2250278  -0.1064138   1.0545989   0.2145666  -0.0353539
   1.1654117  -0.7594766  -0.0914493  -0.2324659   0.1564371   0.2724863
   1.1346830  -0.0393228  -0.4003300   0.2580570  -0.3108908   0.8880754
  -0.0339463   0.0183394   0.0378071  -0.3436604   0.4464839  -0.5569337
   0.2347463   0.5008933  -0.2907963  -0.0471991   0.2751432  -0.0984093
  -0.5934097  -0.5143530   0.6339070   0.7151229  -0.0320230   0.5673314
  -0.0237548  -0.1454573   0.1961473  -0.3434630   0.4007524  -0.4070828
   0.3488685   0.6946131  -0.1594963  -0.2188633  -0.1367453  -0.5795236
   0.7528677   1.0748491   0.9374857  -0.8769245   0.7380707  -0.8877156
  -0.1635757   0.0687209  -0.0825037   0.7091043  -0.8609414  -1.4964026
  -1.3337500   0.3694789  -0.1805223   0.0308453   0.1339788   0.0411394
   0.2122089  -0.1759884  -0.1505361  -0.6555526  -0.2640620  -1.2332787
   0.2448463   0.1649033  -0.1070923  -0.0090247  -0.2570512   0.5271566
   0.3473419   1.7764138   0.0211627   0.1183837   0.0964500  -0.1349378
  -0.5473445  -1.1514924  -0.6406900  -0.0549689   1.0567022  -0.6959197
   0.1492935   0.0123971   0.0446404  -0.6475815   0.2771194  -0.3719289
   0.5948790   0.2959710   1.5463781  -0.1214853   0.1224200  -0.2244237
  -0.7752515   0.2743207   0.2033820  -0.2254631   0.5562236   0.7114156
   0.2530013  -0.1089946   0.0118043   1.3502609   1.1275829   1.4710869
   1.1686978  -0.0424448   0.4924934   0.1406556  -0.1329157   0.3231396
  -0.2884706  -0.2735010   1.3470082   1.0711979  -0.1011616   0.9954146
   0.0697110   0.1944704  -0.0845560   0.0818913  -0.9853615  -0.3861599
  -0.5506189  -2.3728975   0.0367282  -0.1944960  -0.1674403   0.1685127
  -0.4813909  -0.1686983   0.4870801   0.7893195  -0.4152297   0.5845786
  -0.0629520  -0.0476366   0.3358623   0.0320133  -0.6073144  -1.2321249
  -0.3956940  -0.8530961  -1.4818897   0.0398359   0.3385166   0.3091675
   0.7991679   0.6046135  -0.3466269   0.2653219  -0.5494121  -0.5547509
  -0.0788545  -0.0074430   0.0494739  -0.0370654  -0.6175110  -0.5180123
   0.1674110  -1.0576990  -0.4552086   0.5590212  -0.1337088  -0.1471184
   0.7884907  -1.1212186  -1.5271129  -0.9454538  -0.8992009   0.9208938
   0.1114671   0.1143191  -0.0257126  -0.5258384  -0.0583889   1.1069320
  -0.3423690  -1.0006732  -0.4604079   0.0168949  -0.1193219  -0.0467681
  -1.2970610   0.0071738   0.3050451   0.1711953   1.6817040   1.1728687
  -0.3674888  -0.1374044   0.0469462   0.4248371  -0.7598013   1.3577685
  -0.2267336  -0.5261635   0.7365148  -0.2527213  -0.1794875   0.1489810
  -0.0767952  -0.9856037   1.4110299   0.5710734  -0.8343700  -0.3198474
  -0.0397144   0.0972636  -0.1571324  -0.1717309  -0.5276326  -0.4569686
  -0.4904071  -0.1383623   0.3200912   0.0375066   0.3704101  -0.1986702
  -1.5106911  -1.7621580  -0.2261905   0.7393377   0.0678824   0.0549016
  -0.2526815   0.0844013  -0.1170749  -0.6127330   0.1395239  -0.4284239
   1.8154695  -0.7191159  -0.4036345  -0.0282738   0.2808256  -0.2830356
  -0.5773529   0.0147248  -0.5338077   0.4869073   0.7079852   0.2329704
  -0.1220171  -0.3138492  -0.0678160   0.2226125   0.1838310   0.3170250
   0.2957628   0.4476925  -0.1938600   0.1272582  -0.0342214  -0.5363485
   0.1372669   0.1722692   2.0299226   0.4057767  -0.2444086  -0.7814658
  -0.0817161  -0.0209998  -0.0934458  -0.1293959  -0.6854435  -0.4095920
   0.3892195  -0.4805619  -1.0271210   0.2516671  -0.0365527   0.1465939
  -0.0500076  -1.3471419  -0.1010267   0.1264988   0.1537351   0.3546224
  -0.3312633   0.2065934   0.1702517   1.0435748   0.0863322   0.3655381
  -0.1975825  -0.0813352  -0.6922213   0.0665942   0.2603690   0.1428384
  -0.3281623  -0.9768047  -0.4309632   0.4386244   0.2935675  -0.2161393
   0.2635591   0.0900549  -0.1624914   0.0837908  -1.1030445  -0.1975126
  -0.0909202  -0.2561611   1.0725185   0.1743298   0.6914121  -0.0040597
   0.0233051  -0.1457213   0.1542867   1.0531903  -0.1502695  -0.2045435
  -0.1097706  -0.0492469  -0.5542661   0.7715157   0.5566036  -0.5265736
   0.2651761  -0.8147924  -0.0987330  -0.2188743   0.1479837   0.0745638
  -0.0850545   0.7351637   0.1258619   0.8357984   0.8660367  -1.0018427
   0.4175505   0.0755605  -0.2491625   0.1503598   0.2982422  -1.0146853
   0.9843106  -1.0970681   0.5368575  -0.0541931  -0.0768719   0.0806202
  -0.1253530  -0.2764290  -0.4208386  -0.8654055   0.5470107  -0.3011048
  -0.0845869  -0.1599165   0.0000096   2.3072881  -0.1097135  -1.4985743
   0.6463106   0.6703330   0.7327368  -0.0924642  -0.1815421  -0.0693266
   0.2366808   0.7994063  -1.0635195   0.6233731  -1.4400814   2.5237215
  -0.3183107  -0.1312824   0.0499495  -0.1663297   0.7755067   0.6761644
  -0.7316743  -0.5708251   0.2078127   0.0349306  -0.0788338   0.1585208
   0.2998682  -1.1928709  -0.0316104   0.3532303   0.0796822   0.1915119
   0.0237932  -0.0713892   0.4039154  -0.5204141   0.2542937  -1.6477422
  -1.3323385   0.9778360  -0.0017686   0.0632718   0.0141646   0.0303571
  -0.3576320   0.7949607  -0.6525206  -1.3891429  -1.1980820  -0.0663806
  -0.3880536  -0.0421597   0.2376188   0.0877849   0.6832912  -1.8335322
   0.3805542  -0.0986510  -1.0127650  -0.0842440  -0.1269111   0.4008136
  -0.1148180  -0.6195571   0.6388311   0.9532686  -0.8635942   0.1077478
   0.0670227   0.2747508  -0.2763404   0.4255860   0.9901148  -1.4504664
   0.8368890  -0.6925407   0.9744046   0.1021680  -0.2562598  -0.0336339
   0.5670088   0.5132772  -0.8259741  -0.1024529   1.0156449   0.0642805
   0.0242107   0.1151161  -0.0426261   0.6903807   0.6743528   1.0517935
   0.5712845  -0.8568502  -0.3345141  -0.0160791   0.4612016   0.2335264
   1.3547511   1.6362489  -0.6182787  -0.4624677  -0.8391614  -0.0891072
  -0.1598697  -0.0060768  -0.1916327   0.6116397  -0.3013540   0.9540765
  -1.2524913  -0.8811032   0.5701926   0.1044704   0.0198181   0.0707609
  -0.5642368   0.6643236  -1.1804347  -0.6505718   1.3964478   0.5328974
  -0.2039725   0.0480828   0.0643680   0.7113206   1.3901750  -1.1184808
   0.3108775   1.5725685  -0.0793343   0.1075791  -0.5873390  -0.0001332
   1.4987178  -0.1097662   1.0272573  -0.6642057   0.4608688   0.9519155
   0.0135147  -0.3531303   0.2539233  -0.2652353  -1.5223318  -0.7677607
   0.6510242  -0.7489343   1.4865520  -0.0505796   0.4907611  -0.4153454
   0.4008369   0.2899450   0.1011375  -0.1143016  -0.3449102   0.7118660
  -0.2009647  -0.1370111  -0.0911034  -0.9583994  -0.2615954   0.5498774
   0.1173615  -0.1189173  -1.2033690  -0.4056850   0.2333886   0.4239147
  -0.4866748  -0.1137000  -0.5047375   0.5499941   0.8137658  -0.4059397
   0.0224469   0.3295227  -0.1980701   0.7054935  -0.2339914  -0.9604204
   0.1932493   0.6255203   0.5578276   0.1017280  -0.0077051   0.2688252
   0.2296640   1.1335580  -0.4084507  -0.2202827  -0.1569757   0.0366665
  -0.0218999  -0.1645343   0.1234777   0.7857341   0.0649200  -0.5034108
  -0.4599244  -0.1424577  -0.1593141   0.2682052  -0.0703089  -0.1130739
   1.6128647  -0.4581007  -0.0842890  -0.8828599  -0.1832509   0.4971355
   0.3511396  -0.0658323  -0.1746482  -0.1507215  -0.2116595  -0.1366941
   0.7303476   0.2656543  -0.6310139   0.0906136   0.1372063  -0.1305521
  -0.1267960   0.6858505   0.3394689   0.2047973   0.3242258  -1.2925008
  -0.4098667   0.0844327   0.0930120   0.1965541   0.4268669  -0.4352819
  -1.1306103   0.5931418   0.6176533   0.2666182   0.1338534  -0.0353290
   0.1872348  -0.9152429   0.1584466  -0.3244322  -0.4410234  -0.5559146
   0.5308484  -0.0892015  -0.0052129   0.0112298  -0.5002414   0.9904303
   1.4236573  -0.7134478  -0.8438627   0.0691199  -0.2503933   0.2532305
  -1.2022470  -0.7497066  -0.4260584  -0.1153669  -0.0490079  -0.6498657
   0.1229639   0.1313490   0.3180880  -1.0417777  -0.3033092   0.3115244
   1.6961987  -0.9705104   0.5229842  -0.2896481   0.0227080   0.2430740
  -0.3001304   1.0650857  -0.0038231  -0.7722532  -0.3423440  -0.1906618
  -0.2019023  -0.2118467  -0.5401099  -0.3477255   0.9221819   0.3613619
  -1.9052985  -0.4166473   0.2333195  -0.0955216   0.2422696   0.2060469
   0.1742941   0.7099047  -0.6165672  -0.5426666  -0.4210771  -0.0659204
  -0.2256087   0.2204656   0.2082476   0.2299482   0.0665376   0.0708613
  -0.0928522  -1.0403134  -0.9069800   0.1411478  -0.0793505  -0.2301309
  -1.1086442  -0.4460776   0.4718373  -0.0980101  -0.8992435  -0.2125280
  -0.0555804   0.1817656  -0.2044236  -0.6734008  -1.0115656  -0.0504867
   0.0579066   0.7750554  -0.4241144   0.0390236   0.1015559   0.1945230
  -0.2800884   0.5842292  -0.9990258  -0.8377048   0.0187730   0.7879329
   0.0961397   0.2553889   0.0188154   0.6733919  -0.4372444  -0.3134305
  -1.2039343   0.3918211   1.1127604  -0.0913731  -0.2488456  -0.1403270
  -0.8413666  -0.9397719   0.7982653   0.4615536  -0.5355994   1.0842303
   0.1154994   0.0301848   0.1838523   0.6631554   1.8689884  -1.3585712
  -0.8638065  -0.0334603  -0.1059864   0.0012749  -0.2645094  -0.0333963
  -0.7263471  -0.7618254  -0.3182475   0.0778721   0.8757750  -1.2446350
   0.0385716   0.0743968  -0.0892271   0.4218888   0.2206393   0.7759900
   0.0360516   1.3785089  -0.8163316   0.1039397  -0.0929767   0.0608838
   0.5357063   0.6805916   0.2899968  -0.2908505   0.4427778  -0.0922542
   0.0078379   0.0994870   0.1058815  -0.7550592  -0.8391421  -0.8050170
   1.2683485  -1.3666875   0.4500459  -0.1115641  -0.2610582   0.1368201
  -0.9476419   0.1974514  -0.2721170   0.2752170  -1.9080143  -0.0574398
  -0.0570762  -0.0691170   0.2142971  -0.2068183  -0.3607419   0.7903903
  -1.3779047   0.7244885  -1.1196977  -0.0017223  -0.0519987   0.2930262
  -0.1935634  -1.0291412   0.8457016  -0.8502284   0.6815655  -0.2698403
  -0.2878022  -0.2067526  -0.2286827   0.1755870   1.9329316   0.6298637
  -0.7621708   0.3736197   0.1546014  -0.3969213  -0.0940955   0.2281818
  -0.1682979   0.8325059   0.0706808  -0.7873784   0.4231049  -0.3850517
   0.1034407  -0.0613675  -0.1077012   0.1504493  -0.7704198  -1.0105857
   0.1399393  -0.8040779   0.2239798   0.1444380  -0.2321357  -0.0845529
  -0.4272227   0.6951068   0.0585698   0.0527644   0.6339872   0.3385965
  -0.5939117   0.0251572  -0.1083383   1.1370648  -0.1622257   0.9269827
   1.7656904  -0.1848411   2.6480631   0.0867702   0.1095473   0.2685024
   0.9987746   0.5756182   0.3330383  -0.3425420  -1.6161852  -0.6352791
  -0.2059247   0.1347154  -0.0051767   0.8282686   0.3161365  -0.3398833
   0.1587852  -1.3599100   0.0916022  -0.0009721   0.2934779  -0.1985574
   0.1476654  -1.6149299   0.2818764   0.2905161   0.1095679   0.1861208
   0.0853769  -0.0511885   0.1760264  -0.3946141   0.9733710  -0.5440398
  -1.5782033   0.4966149   0.3613491  -0.2543434   0.2307570  -0.2596270
  -0.1426500  -0.5555134   1.0393422   0.6557598  -0.0482917   0.9219951
  -0.0744959  -0.0896910  -0.3815080  -0.5960388   0.0674138   0.3324149
   0.6805314  -0.5397602  -0.9661995  -0.0685562  -0.2008295   0.1782768
   0.3490101  -1.0311398  -0.1300393  -0.9172524  -0.1643018   0.3798617
   0.0234371  -0.2075242   0.1774886  -1.6471494   0.6803078   0.3401105
   1.5134775   0.3123185  -1.5381260  -0.1711620  -0.0976471  -0.2702593
   1.2676784  -0.9165047  -0.4225492  -0.3024153  -0.6351063  -0.0678800
   0.0096182   0.1152329   0.2957446   0.5563900  -0.0242920   0.3763280
   0.4453593  -0.6920898   0.0440075  -0.2549707   0.0419423  -0.2080682
  -0.8839570   2.4085490  -0.1172810   0.7452497  -0.1998270  -0.2403132
  -0.1133446   0.0993913   0.1026154   0.0785894  -0.4111460   1.3567538
  -1.3923466   0.1622640  -0.3860323  -0.1620906  -0.3938230  -0.0103667
  -0.0798488  -1.1302022  -1.2347247  -0.9751994   0.0900662   0.0067368
  -0.1046563  -0.0314476  -0.0796759   0.8314292  -0.5595141   0.4272871
  -0.9605620   0.3744335   0.6592239   0.0030018   0.0564650   0.4325459
   1.6377358  -0.7867183  -1.5836125  -0.2791769  -0.8260467  -0.1953181
  -0.1179840   0.1524538   0.0450155   0.0552050   1.3866669   0.0707655
  -0.6886167   0.7838259   0.0662145   0.1178146  -0.0586771  -0.5429568
  -0.6782004  -1.4627842   0.8244080   0.1429003   1.5701113  -0.6059465
  -0.0549123  -0.0259421  -0.0402948   0.3322412   0.8239868  -0.3333327
  -0.3102770   0.8118366   0.2587761   0.1769253  -0.2216381  -0.1077620
   0.0376848   1.9232683  -0.1743191  -1.4916423   0.5299203  -0.9066288
  -0.1126354  -0.2992658  -0.2508769   0.3965376   0.3819825   0.0861708
   0.5714780  -0.4796418  -0.5944929  -0.2661742  -0.0073130  -0.0489659
  -1.1920660   1.0415763  -0.0596048  -0.4700699  -0.4566220   0.4336422
  -0.1473471  -0.1689509  -0.1878001  -0.7667856   0.2982941   2.5103649
   0.3209509   1.4678793   0.6295228  -0.1572519  -0.0955228   0.2369369
  -1.2061852  -0.2548030   0.3210005  -0.6728405   0.5779412  -0.5227373
   0.0845778   0.1601730   0.0102886  -0.4273679   0.0561995   0.1105002
   1.4452315   1.1922463   0.3626354   0.1472009   0.0749879  -0.2394271
   0.5771339   0.1271543  -0.3954990  -0.9980692   0.4525792  -0.3713901
  -0.0296939   0.0576617   0.1191490  -0.4702518   0.4378344  -1.6559979
  -0.8965126   0.3151624   0.6335257   0.1620196   0.1706071  -0.0013505
   0.8610095  -0.3875192   1.2160617   0.6973241   0.6907499  -0.3346421
  -0.1749257   0.2205912  -0.2454156  -1.6238265  -1.2142067  -0.9314702
   0.5533118   0.1573964   1.5364311  -0.2897023  -0.2311507   0.1454695
  -0.9722391  -0.4220426  -0.3750781   1.0283529  -0.4506315  -0.8517166
   0.0630823  -0.1218904  -0.2297272  -1.6576349  -0.4246783  -0.8774633
  -0.6848162  -0.8749773  -0.0258104   0.1032614   0.1324658  -0.1371709
  -0.1445456   0.7007080   0.5672436  -0.1935581   0.0289900   0.9460688
   0.0849094   0.1042132  -0.2102085  -0.2186831  -0.6418168   0.6694147
  -0.7870662  -0.4217243  -0.1082803  -0.2165901   0.1812241   0.0076606
  -0.1962722   0.0952093   0.6114929  -0.4496302   0.0461853  -0.5860581
  -0.1164268   0.0033485  -0.2283924  -0.7985154  -1.7769269  -1.4260442
   0.2446891  -0.7067873   0.9979060   0.2659772  -0.0178691  -0.1774091
   1.1072500  -0.4736828   0.7293491  -0.0998828   1.0011582  -1.3087303
  -0.0110452   0.0909333  -0.1442149  -0.4771295  -0.6472297   1.8824401
   0.4005171  -0.9919339  -0.0769759   0.1780352   0.0348216  -0.0945212
   0.4774462  -0.1138515   0.2601973  -0.6915333  -1.0827389   0.9374258
  -0.0110477   0.0675809   0.2097706   0.1209106  -0.1032890  -1.6698467
  -1.0749032  -1.0461721   0.2133552   0.0076207  -0.0975605   0.0152576
  -0.6937938  -0.4887216   1.0811015   1.7398760  -1.3214015   0.1965965
  -0.1302631  -0.1114489  -0.2747454  -0.7829544   0.7302351   0.7424792
   1.8859242  -1.5497920   0.6533878  -0.2641310  -0.0026696  -0.0613887
   0.4629808   0.0296832   0.4288192  -0.5898619   0.0737401   0.7850606
   0.0972136   0.3377306   0.1904469  -0.9896144   0.4987303  -0.6997069
   1.4471461  -0.9387729   0.2338325   0.0893135   0.0809736   0.3111706
   0.2771218  -0.6472171   1.1946477  -0.1650561  -0.2910644   0.1739119
   0.1019484   0.2940965  -0.1351254   0.6462699  -0.3700573   0.1267941
   0.6110120   0.9328927  -1.6656571   0.3886201  -0.0566026  -0.4077208
  -0.9509260  -0.9547077  -0.8998316  -0.9398426  -0.4231336  -0.3040406
   0.0726241   0.2406185  -0.2845415  -0.9422227  -0.7043476  -0.7896107
   0.5787922  -0.5684925   0.9227041  -0.1695942  -0.0213835  -0.2491027
  -0.1423827  -1.9096245  -0.6321962   0.2724449   0.0613642  -0.2957310
   0.0672114  -0.0070935   0.0790545   1.1926300  -1.3359197  -0.0395212
   0.1259966  -0.0744067   1.0591976   0.0926094  -0.2972390   0.1465026
  -0.5054338   0.0757242   0.3068427  -0.6319738   0.4320570   0.0004958
  -0.1508061  -0.2097584  -0.2026203   2.3894002  -0.6504186  -1.1959920
   0.2967219  -0.0294539  -0.5675051   0.1517644  -0.0592331  -0.0982479
   1.5120275  -0.2379528   0.2941614   0.3006219   0.2585687   0.2616237
   0.0747417   0.0872754   0.2718868  -1.3877780   0.1789508   0.7800282
  -0.6725650  -0.8950528   0.5951182   0.3265588   0.0230885  -0.1428931
   0.4230397   1.6512628   0.1763666  -0.3949153   1.0067288   0.7807777
   0.2689827   0.4222494   0.0502291   0.5263084   0.4394276  -0.0363739
   0.2394162   0.9554223   0.7972279   0.1341191   0.0427752  -0.1562569
  -0.0636946  -0.2001472   0.1653732   0.2757585   0.2026868  -0.1504721
  -0.0660098  -0.2649179  -0.2241733  -1.1515882  -0.2767925  -2.2588863
  -0.3460089   0.5563799  -0.1638862   0.0274869  -0.1007915  -0.0991687
  -0.5950854  -0.0990390  -0.0157524   0.7691339   0.0253818  -0.4925195
   0.2808193  -0.0545867   0.3567153  -0.1885935   1.7845216   0.9851793
   0.3176151   0.0334032   0.8039193   0.0588614  -0.0593272  -0.1331363
   1.6488210  -0.5465473   0.7252636  -0.7182458   0.0124613   0.5708964
  -0.0489611  -0.1385452   0.2516023   0.5837456  -1.9810544   0.4634660
  -0.0968776  -0.1761965   0.8632764   0.1598799   0.1108414  -0.0668291
  -0.6528109  -0.2887475   0.4834229   1.3197025   1.0727914   0.2374827
  -0.3040125  -0.1445766  -0.2950484  -1.2017066   0.0547757   0.1916859
  -0.0549161   0.7275560   1.1251203  -0.2088794   0.0370736   0.3624410
   0.5564693   0.1370875  -0.6159459  -0.9874313  -0.3012473   0.3361544
  -0.0501374  -0.1656786  -0.0899709   0.2825282  -1.1769948  -1.9030042
   0.8488276  -0.5136026   1.1884230  -0.0217782   0.1375283   0.0564726
  -1.2295131   0.5534629  -0.5260330  -0.4158474   0.5000947  -0.0638455
  -0.3213932   0.0770575   0.2067301  -0.4592443  -0.2399415  -0.5838220
   1.3318810  -0.6849887   0.5076217   0.2045962  -0.3989946   0.0720133
   0.3222788  -0.1414444   0.6300958   0.2969011   0.3509842   0.7978751
   0.3198120  -0.0066886   0.1208564   0.8028706   0.6244735   0.2449138
  -0.7232981   0.2656041   0.0423056  -0.1805129  -0.1764011   0.3313204
   1.4259187  -0.4140110   1.0292181  -1.0692947  -0.0239104  -0.3906136
   0.1026225  -0.1668900   0.1452090   0.3895592  -0.7366446  -0.1719522
   0.4199328   0.0150782   0.0500922  -0.4686837  -0.1121139   0.2398723
   0.2313230   0.3740296   1.6855190   0.4587928   0.0524237   0.0297315
  -0.0113211   0.0805447  -0.0306189   0.3921367  -1.2080615   0.2440386
  -0.1365434  -1.0026417  -0.1490792  -0.1970969  -0.1521378   0.0362929
  -0.2012040  -0.4332865   0.8577589  -0.1183378  -0.2912877   2.4777923
   0.0392461   0.2869277  -0.0081773  -0.1903711   0.3515481   0.3821089
   0.0213334  -1.6656748  -1.1011176  -0.3091242   0.1100751   0.0274529
   0.3068125   0.9902528   0.5106759   0.5174380   1.3499494   0.0196914
   0.3293206   0.1676816  -0.0061094  -0.0448757  -0.0657271  -0.6892582
   0.0197668  -0.2476266   0.4018969   0.0081560   0.1674099  -0.2057199
   1.3687790   0.8986962  -1.1002913   1.1245266  -1.0257513   1.3082827
   0.2084888   0.1642782   0.0473404  -2.0406053   1.2486223   1.1966866
  -0.1090951  -0.3905320   0.5919353  -0.0657696  -0.2231155   0.2172946
   0.1894170  -0.1420407  -0.4376264   1.1724041   0.2540599   0.5125835
   0.2145258   0.0169771  -0.1919242   1.0470771   0.4659626  -0.6098485
  -0.1426323   0.6791468  -0.1736682   0.2188105  -0.1875866   0.0095665
  -0.1693763   0.0835565   0.5099090  -1.0585427   0.4000974  -0.0725583
  -0.3542215  -0.0134757  -0.0379065  -1.3032754  -1.0274186   0.4412188
   1.4150505  -0.1861925   0.6379510  -0.1282356   0.4575815   0.0143940
  -0.9116160  -0.2899310  -0.6204163  -1.0525907  -0.7926125  -0.1195115
   0.1778153  -0.1221713   0.2391119   0.4756319  -0.4424210  -0.1493863
   1.6316337   0.2863319  -1.6702904   0.0280133   0.0807002  -0.1519121
   2.0677956  -1.0233284   0.5276642  -0.3669492   2.0252006  -1.0749306
  -0.4147990   0.0193188   0.2515995   1.1506576   1.2473075  -0.8149910
   0.1845899  -1.0419560   0.4626186  -0.1708469  -0.3750402  -0.0669184
  -0.4713486   0.3239852  -0.3249665   0.1753510  -0.7738513  -0.4451460
   0.0622180   0.3092214  -0.3992693   0.4091670   0.8913452  -0.2481921
   0.9183708  -0.5195572   1.3329523  -0.5017986  -0.0729878   0.2500263
  -0.9367224   0.3703119   1.7079583  -1.2988831  -0.8706641  -1.2690797
  -0.0813405   0.0917277   0.2008107  -0.6923568  -0.5259525   0.9431467
   0.4995916  -1.2502107   0.1150952   0.0557527   0.2058910  -0.2820784
  -0.4789274  -0.3585718  -0.4186655  -0.2976567   0.2717377  -0.3237652
   0.1311610   0.1076673  -0.2359457  -1.1130964   0.2438920  -0.5878954
   0.6982957  -0.7746390   0.5018516  -0.0601813  -0.1382223  -0.1131550
  -1.6976095  -0.5137853  -0.3445907   0.0939556  -0.9655426   0.5811144
  -0.2366103  -0.0603675   0.0609957  -0.0850979   0.0667664   0.3490201
   1.2276045   0.4050727  -0.8466199   0.0652786  -0.2901197   0.2193641
  -1.0021732  -1.2262828  -0.9133523  -0.8588697  -0.1531005   0.0135853
   0.1149695   0.1915136  -0.0802655  -0.4580794  -0.1057954   0.6260504
  -0.1338107   2.1829979   0.2698939  -0.0393724  -0.3418772  -0.0235235
   0.8736607   1.7180261   0.2041697   0.4222196  -0.2214725  -0.0741949
  -0.0125133  -0.2896375   0.4044116  -0.0392321   0.1731082   1.1769624
  -1.0895469  -0.7359959   2.1229326  -0.2024397  -0.0059125   0.1291663
  -0.9792372   0.2680697   0.6805111   0.4798552   0.2331371  -1.0333391
   0.1519727  -0.2552514   0.1396981   0.2688632   1.9024076   0.6749123
   1.7923811   0.8497678   0.2141362  -0.0916514   0.1530869  -0.1698634
   0.2866973  -0.9394257   0.4727171   0.9454055   0.3183736  -0.9564066
  -0.3216480  -0.4722332   0.0934432   0.1038318  -0.0348212  -0.2389130
  -0.8940323  -1.0444034  -0.3921644   0.0400531  -0.2695254   0.1440720
   0.0780203   1.0109064  -0.1587664   0.3969342   0.7080631   0.2048046
   0.0043258  -0.1157152   0.2235742   1.3784710  -1.0582796  -1.2579710
  -0.0318074   0.3180756  -1.0654331   0.1669780  -0.3498513  -0.0757784
   1.6748827   0.2978544   1.6777475  -1.4728370   0.5695434   0.4684636
   0.1269322   0.1242255   0.0250191   0.7354899  -0.8735348   0.1000730
   0.1534689   1.3976420   0.4162422   0.0799407   0.2491087  -0.0072752
   0.8684751  -1.0584554   0.3332077  -0.5027850  -2.0247194   1.4097152
  -0.0734869   0.3438191   0.1833838  -0.7860114  -0.5578814  -0.1126635
   0.3904405   0.6222268   1.5631052  -0.3201275   0.2126052  -0.1712318
  -1.0341706  -0.3805024   0.5226196  -1.8889746   0.2804628  -0.2865953
  -0.5429453   0.0335699   0.1485623   0.5375871  -0.9020764   0.4544604
  -0.0348680  -0.8369044   0.0316484   0.0590577   0.0418108  -0.1202739
   0.3837559   0.0223749   1.0283308  -1.2687998   0.1529076   0.7943112
   0.1265272   0.3071277   0.2021475  -0.4258368  -1.0343551  -0.6869171
   0.7324342   0.8488087  -0.1664771   0.4838952   0.2345382   0.0902175
   0.7379623   0.0571956   0.2604653  -0.3171186  -0.4358065   1.8845595
  -0.3060448  -0.1830322  -0.1676311  -2.1200318  -0.8464978  -1.1400812
  -0.0206365  -0.1269285  -0.1459274  -0.1274786   0.1614874  -0.0091534
  -0.1159723   0.1451891   0.6739762  -0.8683852  -0.9173133   0.0132568
   0.0405115  -0.2654838  -0.1635534   0.9734734  -0.3952852   0.1367368
   0.4857515   1.3730023  -0.2888552  -0.1763853  -0.0015932  -0.1676840
  -0.3683335  -0.0675004  -2.1044027   0.5166698  -0.1871512  -0.7192724
   0.3636550   0.0372407   0.0750680  -0.7854356  -0.2215659  -1.2675952
  -1.3923263   2.0901465   0.1566836  -0.0377428   0.0645227   0.0337307
   0.5957594   0.4199047   0.7157587   1.1138370  -0.7947487  -0.2067731
  -0.0433911  -0.2132290  -0.0681016   0.1091677  -0.5168507  -0.8733596
   1.3597184   1.0938907   0.0137865  -0.0835907   0.0890337  -0.0837537
   0.0763798   0.6158156  -0.5287157   0.6813530  -0.8078654  -1.1000069
  -0.0340515   0.2772918  -0.1834994  -0.5483277   0.5149639   0.2935680
   0.4024997  -0.6464293  -0.4033339  -0.1490034   0.1589896  -0.1025157
  -0.0705371  -1.4373650   0.7583226   0.5096307   1.5336590   0.3464916
  -0.0361773   0.2150619  -0.2326684  -0.5430105  -0.8967868  -0.4906503
  -0.2899974  -0.2977933   0.8444227  -0.1157340   0.1092811  -0.3372614
  -0.7088811   1.1077219  -0.4722841  -0.0361643   0.8540345   0.0833158
   0.0708116   0.2308700   0.1021305  -1.0496689  -0.2919511   0.8101745
   0.3341008   0.1332794   0.3520521   0.0467143  -0.1253256   0.0580743
  -0.4913610  -0.9549496  -1.3499560  -0.7634633  -1.4534908   1.3719154
   0.1726131  -0.1570285   0.3244273   0.3269111   1.4979652  -0.2766608
   0.3782267  -0.6252300   0.8010362  -0.1264972   0.1701093  -0.1756600
  -0.8099268  -0.2438373   1.3865967   1.7216812  -0.2348713  -0.2468588
  -0.0557331   0.0062642   0.0277507   0.1462571  -0.5868006   0.2183087
   1.4503251  -0.8900114   0.6026672  -0.0080996  -0.0845651   0.0182936
   0.3605453   0.5601115   0.4011116   0.8090208   1.0686756  -0.0275046
   0.2410298   0.1262589   0.0542162  -0.9496657  -0.7274928   0.1441222
  -1.1145955  -0.2010041  -0.7893435   0.2629411  -0.1105424  -0.0932396
   0.0709373   0.3919458   0.6175457   0.2991742  -0.4107757   1.9220700
   0.0145370  -0.2358743   0.3829325   0.3674508  -1.7491340   0.1412960
   0.0499629   0.8437806   0.7064284   0.2558990  -0.1392054   0.2417988
  -1.7421895  -0.8209793   0.0362193   0.5575646  -0.6746713  -0.3122075
  -0.0359985  -0.1439255  -0.3245641   0.7115776   0.2261237  -0.8622136
   0.2521925  -1.0215224   0.4676725  -0.0488195  -0.1275751  -0.1800408
  -0.3760548  -0.6015099  -0.8585466  -0.5355481  -0.4661555   1.1301804
   0.1482977   0.1307393   0.0364661   0.9576575  -0.0156674  -0.3240073
   0.3479712  -1.0650274   0.2097082  -0.1257362  -0.1167844  -0.1661222
   0.1047896  -0.7302536  -0.5324499   0.6245470  -1.0895176  -0.1953129
  -0.1426049   0.3608705  -0.0496091  -0.0308732   0.1451172  -0.3623945
   0.7827340   0.5596508   0.2992820   0.3156117  -0.4034901  -0.2463588
  -0.6403420  -0.2511632  -0.4453818   0.4576114  -1.3020548   1.5209562
   0.1657121   0.0034579   0.0639171   0.8562194   0.2858648   0.0324391
   0.0261103  -0.3632060   0.7184414  -0.1897915   0.1622965  -0.2792216
   0.6518706  -0.3379632  -0.3764349   1.1104818   0.0868910  -0.3968197
   0.1184166   0.1720688   0.2375655   0.5390557   0.1819217   0.3839652
  -0.8828890  -0.7635665   0.2708367   0.0768983   0.2926025   0.3231897
   1.6292671  -0.2608834  -0.0732599  -1.8616823   1.8554190  -1.0517891
  -0.1728457   0.1178739   0.2136545  -0.0692706   0.5007356   0.8356799
  -1.1335047   0.5932063   0.5699621   0.3060690   0.1993872   0.1363480
  -0.0268271  -0.5199639   0.4903261   1.3048392   1.5240653  -1.2816812
   0.1918757   0.0607035   0.1566585   0.3910205  -1.0822500   1.1438493
  -1.0750348   1.1114432   1.3565504  -0.0090919   0.2262176   0.1586000
   0.4229479  -0.4512799  -0.4595505  -0.1134555   1.7530129   0.0369626
  -0.3111248  -0.0803476   0.0142485   1.1317856  -1.3680124  -0.2984054
  -0.0358744  -0.3300899   0.9641602  -0.1945257  -0.0966851  -0.2328316
   1.3854750   0.9592701   0.1898978  -0.2553104  -0.2374938   0.0103323
  -0.1436624   0.0731324  -0.0597150  -0.0968382  -0.2201116  -0.2258258
   0.0626171  -0.0608772   1.1265696   0.3891009   0.2186532  -0.0043988
   0.6405527  -0.6319650   0.0506827  -0.2153963   0.4349575  -0.6454950
   0.2191342   0.0722306  -0.0809787  -1.4305610  -0.2794411  -0.1831880
   0.3262763   0.2459142  -1.0486938  -0.0730389  -0.0567045   0.0581035
   0.4590131   0.0252134  -1.3465534   1.4487678   0.5133552   1.0426753
   0.2125223   0.0647757  -0.0949606  -0.7799068   0.8967221   0.5285672
   2.0458329   0.8301765  -0.3308173  -0.0873130  -0.3190616   0.1363787
   0.2400091  -1.2725103  -1.2188365  -0.9004525  -0.2125302   0.9195326
  -0.0296688  -0.2605070   0.3926536   0.7433868   1.1459888   0.3660378
   1.0973983   1.1207790  -1.0471029  -0.0480381   0.0684221  -0.0093960
   1.0611464   1.1311486  -0.2450176   0.1973376   0.5478973   0.3207296
  -0.1638224   0.0433566   0.1735924  -0.1859179  -0.3624399  -0.8742221
  -1.3821881   0.1327864   0.3299573  -0.1340955   0.1276255  -0.2235537
   0.2532821   0.3500442   0.3500208   0.7175278   0.5293951   0.1966541
   0.0407886   0.1837810  -0.0510411   0.2335214  -0.9681121  -0.6679992
  -0.4372930  -0.6808734   0.2541386   0.0146167   0.0320401  -0.6552300
  -1.0013111   0.5988332   0.0701440  -0.7908544  -0.7635571   0.1062211
  -0.1444382   0.0349658  -0.1385975   0.1117656   0.9403954   0.5509709
   0.4352612  -0.8839794   0.1649396  -0.3625105  -0.0021891   0.1921870
   1.1480536   0.0140758  -0.3424355  -0.0456898  -1.3673966  -2.0810104
   0.1131488  -0.0513806   0.2712221   0.4231780  -1.6065991   0.6497720
  -0.3614698   1.5096364   1.0211136   0.0766806  -0.1740093   0.0290783
  -1.7336289  -0.1782688  -0.4545493   1.4204948   0.7809985  -0.1660040
   0.0234903  -0.1505672   0.2204842   0.1307926   0.1458462  -0.0191576
  -0.0987958   1.1936938  -1.3752589   0.2237380  -0.0097174  -0.4168347
  -0.4027588   0.0413514   0.0373084   0.1485736   0.4469371   0.5261164
   0.1449908   0.2024194   0.0082244   1.1249816  -0.1781762  -1.0544253
   0.4606457  -0.6481496  -0.2492683  -0.0212607  -0.0180820   0.0521594
   1.7078680  -0.3563237  -0.2168392   0.3580626  -0.3544481   0.3388659
  -0.2038072  -0.1483419   0.1306037   0.6529838   0.1276355   0.8608463
  -1.2448859   0.4972893  -0.4137765  -0.0155167  -0.1142572   0.0370003
   0.2640521  -0.0746321  -0.1860416   0.3084818   0.6441197  -0.2245146
   0.1684696  -0.0428505   0.3162375   1.1331081   0.3453405   0.6091624
   0.2446251   1.2347188   0.8748907  -0.0191856   0.1129099   0.1571054
  -0.0101071  -0.4469765  -0.1117587  -0.0267788   1.7701106  -0.0231993
   0.0901747   0.0177043   0.1504619  -0.2728896  -0.0499349   1.4342308
   0.7487789  -0.2682400  -0.6772630  -0.1744758  -0.2780318  -0.0200462
  -0.5512985  -0.0732295  -0.4253915   0.0973328   0.4347519   0.9331093
   0.4006805   0.1002782   0.1712799  -1.2412370  -1.1879816  -0.2058667
   0.0296943   0.4357313   0.6064616   0.1299152  -0.3697101  -0.3530175
   2.1136985   0.2333565   0.6931917  -0.8165386   1.7109522  -0.2768006
   0.0027619   0.1945298   0.0566948   0.4393920  -0.6564505  -1.0255438
   0.2836875   0.8994637  -0.2997735   0.0805847   0.1060243  -0.2772801
  -0.9528944  -1.2503811  -0.3965917  -0.3011411   0.8194243  -0.3797597
  -0.2606649  -0.2781506  -0.1253123   0.7620588  -0.4062170  -0.3437280
  -1.4124548  -0.6916170   0.1186379   0.0609558   0.0480677  -0.0565364
   1.1961955   0.9722071  -0.1437797   0.4752790  -0.5069245   0.0516567
   0.0931692   0.1266835   0.4476917   1.0254547   0.0218194  -0.9908670
   0.5555583   0.5820925   0.4944251  -0.0692277   0.0440273  -0.1793106
   0.6487316   1.2703555  -0.1681845  -1.0706658  -0.0183616   0.5842675
  -0.1899821  -0.0164951   0.3239600  -0.0978081   0.2263179   0.8656722
  -1.2009482   0.9664545  -0.2250490  -0.2219071   0.1742689   0.0168867
   0.3517009   0.4760441  -0.7819940   0.2134532   0.8063790  -0.8332686
   0.0444572  -0.2215767   0.0298770   0.8886056   0.2895975   0.4165038
   1.3148810   0.1171905  -0.1189312   0.1698071  -0.0884266   0.3075778
  -0.8056266  -0.7987934   1.2803627   0.6425826   0.4832549   0.0772740
   0.2357879  -0.0911170  -0.1127073   1.3514934   0.3159556  -0.3493821
  -0.1796195   0.9326609   0.0683463   0.2541951  -0.0382729  -0.1870254
  -0.0357686   0.6501960   0.7229992  -0.8091037   0.3324552  -0.3838258
  -0.1595419   0.2336312  -0.2746538  -0.3440845   0.4113437   0.2045790
  -0.1130755   0.8725194   0.7047158   0.0374636  -0.1224641  -0.2597739
  -0.6821717   0.1379653   0.7332517   0.3069126  -0.8476148   0.2638690
   0.1697995  -0.0398421  -0.1063498   0.8909688   1.2607419   1.0024518
  -0.6996704   0.1738307   0.2713453  -0.0040064  -0.1920297  -0.1459079
  -0.8983958   1.0012725   0.1290554   0.4795401  -0.9778362  -0.1625091
  -0.3549521   0.0312611  -0.2431343  -0.1711081   0.3228485   0.3416621
   0.1225035   0.2436453   0.1093376   0.0508413   0.0752481  -0.0084714
   0.4441441   0.7113083   1.1731646  -0.1062636  -0.8205569  -0.9960560
  -0.5375234   0.1020404  -0.1114935   0.6795807   0.0829895  -0.0745848
  -0.3984753  -0.5755972   0.3976891   0.1117929   0.0284278  -0.1703269
  -0.9867767  -0.8648562  -1.5857324   0.5880318   0.2687254   1.5292344
   0.0707549  -0.0224297  -0.1438854  -0.3799656  -0.1042606   0.4191292
  -1.0803662  -0.0482044   1.4535705  -0.1357395  -0.0855365  -0.1215016
  -0.0217939  -0.7612685  -0.9553355   0.1275118   0.8260434   0.0600422
   0.1412345   0.0387334   0.2368140   0.2485925  -1.2435897  -0.2412350
  -0.4534469   0.7963071   0.1493944  -0.1768466  -0.1606212  -0.1374855
   0.0046576  -0.4223205  -0.6472860   0.0749102  -0.3665991  -0.9390624
   0.2884113   0.0021078   0.3801482   0.0216794   1.4954258  -0.4404313
  -0.3795853  -0.2091365   0.7777594  -0.1985273   0.0602354  -0.1615014
   0.4713958  -0.2171341  -0.5546900   0.2796581  -0.2534013  -0.2494335
   0.1192901  -0.0439878  -0.0465647   1.1388903  -0.9682486  -1.1500084
  -0.0128185   0.4971681  -0.6492412  -0.3345077   0.1472575  -0.1045693
   0.4435219   0.5248601   0.4600959   0.0684139   0.5264408  -0.7155961
  -0.0675683  -0.3541829  -0.0963874   1.3164180  -0.1890004   1.4136215
  -0.7186187  -0.6644582  -0.1695691  -0.2982546   0.0070446   0.2619891
   0.8846951   1.5479910  -0.2576455  -1.2820472  -0.7582120   0.2523790
   0.1121253   0.2623437   0.1862794  -0.8838733  -1.1817529  -0.5859424
  -0.4642888  -0.9360785  -1.1034705   0.2004505  -0.0461966  -0.0562013
  -0.0814958   1.8002699  -0.4880137   1.2196232   0.3780338   0.3703253
  -0.0406349   0.0471225  -0.0718000  -1.3770622   0.2596538  -0.4474978
  -0.5376960  -0.1287463  -1.0333679   0.0303444  -0.0525540  -0.2700554
   0.1533518   0.7333435  -0.9055832  -0.3474719   0.1080075   0.1730437
  -0.3251721  -0.1073608  -0.2907516  -0.3920284  -0.1160584   0.3962091
   0.3779240   0.4233484  -0.6229928   0.1064077   0.2156036  -0.3497594
   0.3795735   0.6670680   0.2918694  -0.3168086   0.5879758   0.5536076
   0.0383739   0.0848337  -0.2258072   1.0455534   1.1783079  -0.3222930
  -0.3884146   0.0245091   0.1200068  -0.0555875   0.1963764   0.2599440
   0.1396865   0.1470913   0.1042113  -1.1610230   0.6582660  -0.8321359
  -0.1611729  -0.0173908  -0.0683233   1.2446349   1.6563905   0.3137375
  -0.0700698  -0.5202984   0.6014913   0.0896578  -0.3820348   0.0191245
  -0.7039314  -0.8970828  -1.1058103  -0.7189708   0.6544274   0.0852554
  -0.1508287   0.1200751  -0.0114419   0.5451028   0.4999707  -1.2561776
   0.4919548   0.0129436   1.5658169   0.3894225  -0.1974774  -0.2065593
  -0.5175018   0.5078990  -0.3892105  -1.0159636   0.4442817   1.9327459
  -0.2900540  -0.3165870  -0.0171840   0.1719562  -1.6231507  -0.1031250
  -0.8949872   1.0566710   0.2266809   0.2208115   0.0867135  -0.0678401
  -1.0211926   0.0800267   0.9898831   0.3601234   0.4654844  -0.4185093
   0.0308941  -0.4062206   0.0128826   0.4225364   1.1369601  -0.5964120
   0.1281196  -0.7310752   0.1338790  -0.0176634  -0.0446544   0.1440874
  -1.0315715  -0.3360731  -0.4747112  -0.4395505   1.3801244  -0.0294429
   0.0933652  -0.0185427   0.0268618   0.4480385  -0.0325599  -0.5867912
   0.5788257   0.2579647   0.5044496   0.2406629  -0.4494471  -0.1569181
   0.0617227   0.8441819  -0.2986122  -1.8573242   0.9046698   1.3599093
   0.1506852   0.5477870  -0.0996404   0.8961486   0.3521776  -0.5878326
  -0.8811745  -0.1399996  -0.3251906   0.2313602  -0.1903054   0.0925015
   1.0026979   1.7299138  -0.3979832   0.0712799  -0.7964455  -0.2528573
   0.2478828   0.1409498  -0.0393610   0.0371485  -0.2644837  -0.9844739
  -0.2138311  -0.1432648   0.5924235  -0.0001444  -0.0853957   0.0356803
   0.8100028  -0.8890212  -0.8861612   0.7069754   0.2102388  -0.1865928
   0.0825759  -0.2050285  -0.2866036   0.6692037  -0.8224305  -0.1513729
   0.5263189  -1.2253911  -0.7403757   0.1085864  -0.0898708  -0.2232239
   0.3945616  -1.8108116   0.0986404  -1.3654910   0.1011477  -0.6083317
   0.1006921   0.1379701   0.0297024  -0.0384221  -0.3876226  -0.1202194
   0.3096427   0.7015055  -0.4679770  -0.1752150   0.1690224   0.0309458
   0.0812099   1.1352007   0.6909438   1.1757848  -0.1924037  -0.5555069
   0.1265993  -0.1206529  -0.3519197  -1.1810314   0.6555326   0.2424923
   0.2173841   0.4786089  -0.5329312  -0.1746615   0.0285405   0.0064140
  -0.0512428  -0.5397479   0.9257781   0.1943273   0.3525765  -0.0359516
  -0.0794574   0.2829867  -0.1273345  -0.3110619  -0.1858973   1.0251310
   1.1540350  -0.2987340   0.8291790   0.0201239  -0.1138089  -0.0742419
   0.5993281   0.1895850   0.2161283   1.3108997  -1.3531471   0.7615280
   0.0631824   0.2022970  -0.0590882  -0.1216623   0.4942920  -0.0333548
   0.2941524   0.0765292  -0.5972773  -0.5421222  -0.1927543   0.1129548
  -0.0439769  -0.8178018  -0.3406793   0.4147620   0.5213793   1.5751977
  -0.0150579   0.2486837  -0.1022766  -0.0157706  -0.8517733  -0.8093094
   1.2366830  -1.0687265  -0.2115384  -0.2084333  -0.0060347   0.0382515
  -0.2266801   0.4319155  -1.2458305  -0.1265677  -0.0654519   0.4839683
   0.4255469   0.0496450  -0.0360346   0.3773911  -0.8969962  -0.1330070
   0.5382826  -0.3238507  -0.6293281   0.2084619  -0.0356497   0.0621954
  -0.3007295  -0.5274060  -0.5978339  -0.1379516  -1.1306608   2.0870077
   0.0111672  -0.0575329  -0.1443829  -0.0625449   0.3085072   0.7029545
  -0.3462748   0.0200724  -0.8790165   0.1641079  -0.0839139   0.2151325
   1.1065395   0.4324922   0.3610366   0.3884790  -0.1275884  -1.1509877
   0.1921128   0.0692523  -0.0266371  -0.3122905  -0.6030936  -0.9208893
  -0.1370011  -0.1863150  -0.1112663   0.0025633   0.1760127   0.0129326
   0.6312658   1.1148547  -0.2136744   0.9809649  -0.0315033  -0.2230699
  -0.1475780  -0.1576252  -0.1307120  -0.0928376  -0.2872745  -0.3064901
   1.0666986   1.2279116   0.8499171   0.0663773   0.0317984   0.0187517
   0.2959961  -0.2202015  -0.1292804  -0.1605614  -0.2288174  -0.0490257
  -0.0572407   0.3510176  -0.1791209   0.0293741  -0.2096058   1.0058189
   0.0297522   0.1333372  -0.2526810   0.1429944   0.0180973  -0.1964400
  -0.5487521   0.1511557   0.2919069  -0.4610484   1.2117945  -1.5142008
  -0.0100362  -0.3578147   0.2551600   0.1309663  -0.0073245   0.5606854
   0.1962161  -0.1432110   1.5688279   0.1985523  -0.1185227   0.2117624
  -0.1746264   0.7009442  -0.0947802   1.2917793  -0.2935921   0.5329103
   0.0771000  -0.0671241   0.3869658  -0.8166599   0.4119215  -0.7065847
  -0.8301103   1.1622376  -1.0901180   0.1595642   0.2179700  -0.0089842
  -1.7146796  -0.0235206   2.1032842  -0.0928916   0.2208888   0.5601803
  -0.2603525  -0.0184132   0.1165165  -0.6856327  -0.4325298  -0.9580109
  -0.8707924  -0.2640003   0.1388348  -0.3399857  -0.0143164  -0.0337335
   0.1384041  -1.1406352   0.1556001   0.9287037   0.7964051   0.2366246
   0.0383757   0.1324740  -0.0902103  -0.5884621   0.2496942  -0.1737168
  -0.8526494   0.4186124   1.0566006   0.3402648  -0.3568047   0.2835338
   0.1188419  -0.1031059  -0.5242234  -1.3633165   0.2053177   0.9915137
  -0.2082320   0.3698961   0.0635631   0.2104438  -0.1559156  -0.4442128
  -1.0446983   0.2958728  -0.3498715   0.0910810   0.1144500  -0.0236561
  -0.1723352  -0.1058764  -0.3219171  -0.5266368   0.4472294   0.2931034
   0.1682892  -0.1259579  -0.2994521  -0.0710793   0.1168924  -0.8673359
  -0.2488535  -0.4861389  -0.7411776  -0.3730536   0.1252447  -0.0468621
   0.0209611   0.5440809  -0.6159550   0.6750245   0.4126597  -1.5199226
   0.1852427  -0.2178709   0.0086240  -0.4598831  -0.9024252   0.3072544
  -0.0731617  -0.8265533  -0.0028059   0.0515202  -0.1718573   0.3435225
  -0.1440983  -0.5938252   1.0353354  -0.1689758  -0.1538512  -0.2260151
  -0.1115845  -0.0940119   0.2387376  -1.1185176   1.2298117  -0.1858268
  -1.0797949  -0.2808303  -0.6992886   0.1450167  -0.0940497  -0.3109356
  -0.4748632  -0.3661514   0.7395762   1.6564704  -0.0042215   0.7037851
   0.0283116   0.0930106  -0.2605029   1.8136540  -0.0200116  -0.1593409
   0.5646205   0.1312815  -0.1938780  -0.1852106  -0.1295431  -0.0452394
  -0.0153875  -0.7231402   0.4396545   0.4407419  -0.6568580   0.3347196
   0.2980839  -0.1628653   0.1068830  -0.6693677   1.6492030   0.7184268
  -0.5565893  -2.6072189  -0.2231238  -0.2613642   0.0591389  -0.1117104
   0.5165507   0.6191826   0.5718172   0.7251316  -0.6875859  -0.9102197
  -0.1453139   0.0127286   0.0322209   0.5568734   0.7602097   0.1361360
   0.2140154  -0.1750357   1.7508815  -0.2280957   0.1429317   0.2166170
  -1.5918541   0.4750493  -0.2127420  -0.9071719   0.3434748   0.3271780
  -0.0754367  -0.1098120  -0.0148817  -0.6509904   0.4660935  -0.0533953
  -0.5531323  -0.4229123  -0.3066706   0.0447591   0.1435479  -0.4093735
   0.7212689  -0.9627959  -0.5683778   0.2014484   0.4194014  -1.0343498
   0.0683507   0.1406878  -0.1360414   1.1685256   1.5978780  -0.7119375
  -0.4788079  -0.2913704  -0.9036698  -0.1505637   0.1583246  -0.0273127
   1.1013493   0.2059128  -0.7491875  -0.1916773  -0.4814894  -0.8875110
   0.0046870  -0.0454292  -0.0977547  -0.0900964   0.0803861   0.7759342
   0.1845012   0.2738588   0.0359638  -0.1709445  -0.1618125  -0.0683110
  -0.5691662  -0.1893523   0.9842754   1.0933682  -0.5358726   0.7681798
  -0.1324828  -0.0849526   0.1648219  -0.5337421  -0.1752002  -0.0095430
   1.0822823  -0.9638466  -0.0799980   0.2800036  -0.1259707   0.0541844
  -0.7519295  -0.4160093   0.6938569  -0.3974334  -0.2359318  -0.0641986
  -0.4599959  -0.3330379   0.0539843   0.7532431  -0.3965479  -1.5690905
   0.7731158   0.2715146   0.5898313  -0.3278256  -0.1071212   0.5106827
  -1.7601011   0.0926851  -0.8301576   1.3093436   0.4857305   0.5512033
   0.1357096  -0.3303808  -0.3345740   0.1164348  -0.7120233   0.2388551
  -0.0557154  -0.3181524  -1.1885283  -0.1675158  -0.0362351   0.2883457
  -0.0002499  -0.6124233  -0.6442604   0.1435692  -0.1894058  -0.4021528
   0.2425615   0.0490723   0.0372308  -1.6582574  -2.1589231   2.0525343
   0.6130091   0.0436030   0.6377664   0.2310359  -0.1913087   0.2263831
  -0.3656038  -0.3231633  -0.6310915   0.1830258   0.1775139   1.8994472
  -0.2700929   0.1362839   0.0747029  -0.1978682   0.6992532  -0.9771326
   1.1388868   0.3272258   0.4960477   0.1523608   0.0256634   0.1749596
  -0.2863525  -0.3184936  -0.8527656   0.3332396   1.3546380  -2.0459456
   0.0454560   0.0687294  -0.0423560  -0.9863225   1.0941083   0.4527076
   0.4472578   1.3368189  -0.9828475  -0.0407430   0.3949925   0.2937716
   0.1048819  -0.9585576   0.6468053   0.6393035  -0.0625109   0.2971889
  -0.3754584  -0.2911267  -0.0159365  -1.6383200  -1.3694563  -0.2410104
  -0.5236072   0.0538787  -1.2829970   0.1977269  -0.1338579  -0.1577807
  -0.8487451   0.3776205   0.6684622   0.2400686  -0.6649763  -0.0635853
  -0.2459455   0.0863281  -0.1827755  -0.2224588   0.9928119  -0.3500167
   0.2257391   0.7037185   1.6002613   0.0882610  -0.1116702  -0.1261417
   1.1016187   1.0186766  -0.4550888  -0.2349139   0.9745352   0.9430685
   0.3503432  -0.1575280  -0.3808742   0.0480799   1.5457116   0.2563157
   0.4758655   0.8321620  -1.6196246  -0.1295101   0.2439799  -0.1427244
  -0.7978838   0.5591557   0.4988303   0.0766773   1.1293539  -0.3311715
   0.1923809   0.2951222   0.1204584  -0.0595394   0.8236688   0.3103114
  -0.5566398  -0.3545415   0.0189753  -0.2857159  -0.2603641   0.3733944
  -0.1243532  -0.2798092   0.0274393  -0.8532783   0.1068539  -0.1981944
  -0.2129640   0.1550648  -0.0202143   0.7644706  -0.4080280  -0.7705750
   0.4502607  -0.1087970  -0.3699748  -0.0617911   0.2220752  -0.3835979
  -1.2869056   0.1933714  -0.9488284  -0.3423744  -0.4125819   0.5981259
   0.0096764  -0.3597333   0.0502860  -0.8559146   0.6674551   0.3498918
  -0.2428551   0.7097544   0.6188470   0.2900497   0.0583835   0.5529437
  -1.1848586   0.8137137  -0.0188111   0.1240842   1.1509580  -0.2307521
   0.1095175   0.2252599  -0.0007122  -1.2792027  -0.7803755  -0.7989906
  -0.4555933   1.2080507  -0.1194899   0.1314797  -0.1997530  -0.0204546
   0.7109508  -0.2928413   0.9517006   0.9927604  -1.5647204  -1.6798774
   0.1150935   0.1924213   0.0851229   0.3634389   0.4254701  -0.2163873
   1.1164603  -0.7473546   0.4024210   0.3935388   0.0825605  -0.1293129
  -1.0483521   1.5053967   1.0121839  -1.1030293  -0.3092281   0.5247249
   0.1154418  -0.1091920  -0.2172018   0.7723405   1.9536043   0.5193859
   2.0481318   1.4032237  -0.6460138  -0.0909350   0.0166110   0.2965800
  -0.1918003   0.5994319   1.0929346   0.8038202  -0.6226022   0.6986604
  -0.0780998  -0.0018509   0.1455640   1.1589222  -0.2838780   0.6682949
  -0.2725932   0.6422025  -0.2919812  -0.1341503   0.2016744   0.0247686
   0.4005350   0.0386158  -1.4084036  -0.1802457   0.1899043   0.2902463
   0.1034020   0.2013489  -0.0494146  -0.8899978  -1.1079193   1.0373249
  -1.2851387   0.9571571   0.1519344   0.3071991  -0.0459280   0.0820444
  -0.3100707  -0.6928734   1.6322474   1.8544156   0.3643530   0.4015644
  -0.2117418   0.2513618   0.0065215  -0.4659577  -0.6070732  -0.1499858
  -0.5722394   0.5823513   1.2593956  -0.2104561  -0.2306849   0.2106184
   0.2502554  -0.4239662  -0.5162474  -0.3360969   0.7541049   0.0016225
   0.0057218  -0.2988864  -0.1888536   0.1989424   1.5421537   0.8308910
  -1.6073828   0.4023444  -1.3112893  -0.1951192  -0.2863717  -0.0312580
  -0.1554632   0.1258806  -0.2187860   0.1951780  -0.4821431   0.0046663
  -0.2584644  -0.1351762  -0.0170216   0.7253480   0.3768830   1.1544664
  -0.0437012  -1.4516641  -0.2582723   0.1087011  -0.2071813   0.0332858
  -1.0529650  -0.6891115   0.4420097  -1.3976831  -0.8839059   0.0244329
   0.1405869  -0.0148528   0.0989067  -0.5545158   0.5464684  -0.4842941
   0.3070260   0.7287938   0.0008637   0.2365460  -0.1810656  -0.1915692
   0.0760965   0.2233787  -0.7167515  -0.2399085   1.4017998   0.0428784
   0.0389802  -0.0304646   0.0366631  -0.0834844  -1.1735404   0.5213202
  -0.5032572   2.9276117  -1.1446426  -0.3822012  -0.1432464   0.2791446
   0.9945896  -0.3061315  -0.6256612   0.1431698   1.0675220  -1.3442512
  -0.0601962   0.0708750  -0.0614330   0.5856738  -0.4974842   0.1417360
   0.8752790   0.4623992   0.6070432  -0.2124303   0.2225710   0.1051974
  -0.1362236   0.4029641  -0.0728773   0.0346611  -0.0415987   0.3929758
  -0.2620769   0.0321161   0.1660327   0.4892195   1.8197229   1.0927830
   0.3389366   0.9020422   0.1545623   0.2632809  -0.0086212  -0.0952722
  -0.5643125   0.1392211   0.5104284   0.2308967   1.0325489  -0.0657800
  -0.2952778  -0.3593233   0.1653864   0.3654153   0.4981398   0.7722722
   0.6231648  -0.9464368  -0.6735917   0.1311873   0.1354688   0.2660918
  -0.0598784  -0.7444415  -0.5000714  -0.1439247   0.0948446   0.5061809
   0.0529033  -0.2506998   0.0645702   0.9965898  -0.4674479   0.7529868
  -1.8034807   0.5381799  -1.0646190   0.1138431   0.0651308   0.2649940
  -0.2073378   0.0720022   0.4780497  -0.5390349  -0.1324978  -1.2765073
   0.0453978  -0.0184552   0.0543545   0.3432134   0.7842518   0.0743271
   0.0937896   0.6144026  -0.0832549  -0.0926242   0.0628559   0.0767447
  -0.2311925  -0.1572063  -0.1714236   0.3796744   0.6928000  -0.4945227
  -0.0754158  -0.1352171   0.2277400   0.5877750  -0.1453377  -1.2968240
  -0.7684350   1.0709272   0.4181542  -0.1073489  -0.2148888  -0.3334058
  -1.5641235  -0.0983779  -0.6298552  -1.1165762  -1.7256189  -0.5014535
  -0.3485305   0.0713717  -0.0761086   0.9110606  -0.7053078  -0.4436083
  -0.1923479   1.4204903   0.1090920   0.2827413   0.2140650  -0.1482518
   0.6575813   0.1168987  -0.0773291  -0.6594597  -1.5050732  -0.3901925
   0.1242752  -0.0174214   0.2839045  -0.0630611  -0.5308004  -2.3702103
  -0.5996362   0.8597430  -0.2150812   0.0185967   0.1615766  -0.2426489
   1.1670327   0.5090884  -1.2708691   0.0478395   0.9591459  -0.5467858
  -0.0826893  -0.0781040   0.1064190  -2.4174385  -1.4675770   0.1930604
  -1.6934032   0.7788402   0.4604577  -0.0630445   0.2218451   0.0714969
  -0.9264141  -0.4281824   0.9621473   0.9590886   0.3466234   0.7184009
   0.0528449  -0.1163965  -0.1519895   0.0194442  -0.2268332   0.5592468
   1.3671631  -0.7853998   0.9360149   0.2277061  -0.1930567   0.1546613
  -0.8734383  -0.8385671  -1.3747581   1.1342492  -1.0693648  -2.0876101
  -0.0294545   0.2279620   0.1641062   0.6771525   0.0666104   0.3812322
  -0.1824331  -0.0036762  -0.5826498   0.1385672  -0.4460779  -0.0996233
  -0.9967121   0.1184793   0.1361467   0.9990985  -1.4816709  -0.2168549
  -0.2720855   0.0932028  -0.0637207  -0.2768080  -0.4260252   0.6085872
  -0.1269058  -0.5504486  -0.9086617   0.0693222  -0.0314945  -0.0099836
  -1.5088944   0.8559738  -0.0380104   0.5978775  -1.6192049  -0.4885230
   0.2456691  -0.0520000   0.3210802  -0.9684218  -0.2205406  -0.4572831
   1.3973128   0.9603577  -0.6903390   0.2540477   0.0745734   0.3242942
  -0.6161157   0.3933168   0.1469459   0.2373283  -1.2053002   0.7391984
   0.3457805  -0.1117561  -0.0504126   1.7855556  -0.5776362   0.1108089
  -0.0521884   0.8105707   0.7327078  -0.1729009  -0.0715797   0.1528636
  -0.2641613   0.3285794   0.7252371   0.6753617  -0.8722493   0.4142892
  -0.0447202   0.1487265  -0.4044279  -0.0395057   0.1324951   0.5811037
  -0.5145213  -0.2632577  -0.8588533  -0.0081592   0.1113285  -0.0260497
  -0.4692953   1.4638161  -1.2229030   0.9621220  -0.6476003   0.7223333
  -0.0882416  -0.3275267   0.3469759  -0.0954188   0.4490618  -0.5587805
   1.5000340  -0.1355006   1.4519368   0.1762112  -0.1926937   0.1633572
  -0.4834106  -0.4944844   0.6848159   0.0552944   1.1739457   0.6499312
   0.1441949   0.0450774   0.0039325   0.5575888   0.7969941  -0.3295913
  -0.4316235  -2.4524788  -0.6362150   0.1396379   0.0793190   0.1702287
  -1.3763868  -0.0359368   0.0495590   0.4183845  -0.8340038   0.2317082
  -0.0808508   0.2204221  -0.3393905  -0.7483687  -0.3826910  -0.6129065
  -1.0661841   0.9943092   0.8560966   0.3029447   0.1937804   0.0024184
   0.7618083  -1.1875043   1.1667030   0.6804844   0.5177491   0.1651111
   0.2898872  -0.5306552  -0.3501040  -1.6485414  -0.0169677  -0.4953792
   0.0647014   0.0386263  -0.2896453  -0.0200917   0.1181517   0.3136337
   0.4643591  -0.8240277  -0.2258366   0.2052692  -0.0366422  -1.4662589
  -0.0457705   0.2492117  -0.2729647   0.7636699   0.5966196  -0.8141220
  -0.3804558  -0.1896270   1.0424199   0.1137625  -0.0939532  -0.1731685
  -0.8478447   0.0423618   1.4332479   0.7451200  -1.7585922  -0.6370955
  -0.4335338   0.1109909  -0.0484761   0.1806931   0.1386208  -1.0017345
   1.0795827  -0.1167329  -1.2309521   0.0043806  -0.2217380  -0.3734110
   0.0814909   0.4953600  -0.0417325  -0.0052293   0.4141834  -0.2572725
   0.0366857  -0.0812914  -0.1711241   0.7564627   1.0192802  -0.7210168
   0.6283660   0.5258381   1.5195433  -0.0785409  -0.1477477   0.1879602
   0.4824491   0.5872082   0.0343903  -1.3475193   0.3597683   0.0172039
  -0.2284453  -0.2759944   0.0426614   0.4720005   1.3691627  -0.5854526
  -0.7542695  -0.2335572  -1.2654050   0.2756608  -0.0922655   0.2047994
   1.7882430  -1.1670710   0.4022615  -0.3586257   0.8896372  -0.6900295
  -0.0946007   0.2349076  -0.2118169  -0.5908807   0.7924832   0.2035774
   0.5608207  -0.2776296  -0.0273410   0.1247384  -0.1696827  -0.0694246
  -0.5952569   0.8338825  -1.4229659  -0.2351273   0.5152040  -0.5747054
  -0.0768749  -0.0190903  -0.1055184  -0.1508277   1.4587538  -0.6065627
  -0.3088093   0.7659538  -1.5130879  -0.0294207   0.0583868  -0.0150139
  -1.4250812   0.4529198   0.0482074  -1.0200416  -0.3235445  -0.5178124
   0.1756617  -0.0592107  -0.0353775   0.6526539  -0.5993800   0.0150024
   0.0698994  -0.1772384   0.3009103   0.0955626   0.1840607   0.1118237
   0.7307331  -1.2626112  -0.0727301   0.2087908  -0.4527731  -0.5599451
  -0.1188875   0.0686496   0.0110980   1.0547712  -0.1966268   0.3566774
  -0.7405546  -1.1575571  -0.1778543  -0.0551534  -0.1176348   0.1307246
  -1.1725368   0.5491964   0.5005708   0.5355764   0.0271143  -0.1755635
   0.0715457  -0.1519547  -0.1872590  -0.4084879   1.0747471  -0.3293281
   1.2636416   0.3068100   0.7564352   0.0195359   0.1224030  -0.0908417
   0.4158312  -0.7624344   1.4625148   0.0840734   0.2542212   0.3653457
   0.0880880  -0.0898055  -0.1625012   0.1512074  -0.2700499  -0.9295983
   0.9337330  -0.3693082   0.4450969  -0.4770189   0.2950111   0.0298241
  -0.1200130  -0.4373138   0.8085914  -0.0441929   0.8929199   0.2309832
   0.3217141  -0.1170291  -0.2473140   0.5376103  -0.1855048   1.0446074
   0.1150023   1.3248371   1.5649250   0.0650592   0.2856366   0.0098187
  -0.9666234  -0.0842034   0.5055242   0.8362470  -0.1713565   1.3787762
   0.1500085  -0.0843596   0.2802366   0.0814315  -0.3480851  -0.4159020
  -1.0385927   0.2912406   1.5693201   0.0740989  -0.2650808   0.0762136
   1.3045119   1.3675947  -0.6176569  -0.0250934  -0.0806738  -0.5646736
  -0.1121763  -0.0494034  -0.2105464  -0.0130510   0.4496940   0.8733406
  -0.4044536  -0.7278628  -0.2744238  -0.1412095  -0.0635970   0.0536624
  -0.3449358   0.3668082  -0.6825196   0.2957111   0.1690079  -0.4601901
  -0.2297744  -0.1456558  -0.0727699   0.1015209   0.2678453  -0.1123814
   0.3496005   0.4505944  -0.0157455   0.1654950  -0.1630750  -0.0315982
  -0.0074480  -1.2493950  -1.0808200   1.0163085  -1.5015325  -0.8346371
  -0.4275266   0.1975483   0.1776249   0.4659071  -0.7782761   1.2441242
  -0.2415373  -0.0699772   1.2133464   0.1805420  -0.3420135   0.2437210
  -0.7767833   0.9211898   1.1140125  -1.0884680   0.2136925  -0.1778387
   0.3258586   0.3199318  -0.1018734   0.2341902  -0.3456741  -0.3133209
   1.4574907   0.6540337  -0.9472258  -0.0227035  -0.0040460   0.0756267
  -0.3108456   1.4244233   0.9537857   1.3505429   0.1655658   0.6620753
  -0.0075550  -0.1050827  -0.0417168  -0.8219101   0.5671491   0.0619486
   0.7553145  -0.7589247  -0.4532583   0.1274488  -0.4083832  -0.1217386
   0.3415659  -0.2313028  -1.5866075   0.6566911   0.4258968  -0.4168660
   0.1332307  -0.0148997  -0.1157920  -0.0507585   0.2103716   0.2396986
   0.9717044  -0.3908545   0.4396091  -0.1044416   0.1970284   0.1314173
   0.4121661   0.6115207  -0.9276058  -0.9112436   1.0459810  -0.7155230
  -0.0808990  -0.0181782   0.1396792  -0.4636838   0.9482364  -0.2951705
   0.9904403   0.0714140  -0.8672446  -0.1075986  -0.3363779   0.0851347
   0.6066854  -0.4109567  -0.7386635  -0.1939419   0.0390602  -0.9530430
   0.0144353   0.1463046   0.2439525   1.0377561   0.1131600   1.0051042
   0.2687574   0.4301612  -0.1289662   0.2562550  -0.2198236  -0.0414528
   0.2478425   0.2536600  -0.4797303  -0.4197185  -0.5792944  -1.5111949
  -0.0863268   0.1337803   0.0817463  -0.8161946   1.5067373   0.1029833
  -0.7602617  -0.6981128   0.2133377   0.0592004  -0.2237698  -0.1810537
   0.6674058  -0.1971159  -1.6558794  -0.3025282   0.3091521   0.6665255
  -0.3991060  -0.1876094   0.4754908  -1.4573334   0.6179251   0.5276754
  -0.8149447  -0.4646002  -1.4485314  -0.4142179   0.0029422   0.1055142
  -0.9073029   0.7658679   0.8433608  -0.2917483  -0.4662159   0.1702258
   0.0359477   0.1434353   0.2136842  -0.9532615   0.1829358  -0.8228520
   1.3642415   0.3626456   0.5578642   0.0090724  -0.0185193  -0.0980700
   0.1889612  -0.1078758  -0.4029827  -0.4766391   0.0217146   1.0488939
   0.0373310   0.0918514  -0.2128152  -1.0933825   1.4191534  -1.0928438
  -1.1756525   1.0529356   0.8947709  -0.1266456   0.1253900  -0.0863120
   0.2961948   1.1384608   1.3276212   0.7488322  -1.8896125   0.4937895
   0.1239197  -0.1277583  -0.0115902   0.7679858  -0.6582370   0.0603846
   0.1285199   0.2379872   1.0667159  -0.1496689   0.2010036   0.4036307
  -0.1723573  -0.5928871   0.3158302  -0.0381444  -0.7307396   1.6667271
  -0.0186984  -0.1021663   0.2376780   0.2313331   0.6042359  -1.0886581
   0.9159621   0.4529715   0.5359039   0.2007249  -0.0936721  -0.0622990
  -0.0536882   1.1643974  -0.6701156   0.0653081   1.4173414  -0.4527623
  -0.1011761   0.0634614  -0.0653733   1.4138655  -0.1724386  -1.2166043
   1.3224285   0.3490819  -0.0010572   0.4161212   0.1983746   0.0313499
   0.3590518   0.3747171  -0.4241535  -0.1556031  -0.7385363   0.3601720
  -0.0630015  -0.0382081   0.1938115  -0.5075917  -0.2751739   0.1913737
  -0.3272394   0.2867225  -0.8671230  -0.1349410  -0.3331206  -0.1418718
   1.2704435   0.6471094   1.0738668   0.0716984   0.3805195  -0.5774047
   0.0700037  -0.1528283   0.2701727  -1.1696240  -0.3788583   0.1756618
  -1.2195021  -0.3284807   0.6555633   0.3782734   0.2286075  -0.0463812
  -0.7923333  -0.4246616  -0.4317012  -1.3157435   0.0444984  -1.1455902
   0.3578732  -0.0793199  -0.0023748   0.3825741   0.3281007   0.7801361
  -1.0391379  -0.3802654  -0.4340356  -0.1230430  -0.3152054  -0.3036235
   0.9687529   0.7699964   0.3077384  -0.2440012  -0.1147747   0.4340530
   0.1740503  -0.1043022  -0.0487956   0.2875778   0.2263588  -0.1582119
   0.3797003   1.0704333  -0.2945805  -0.2164991   0.0632340   0.0229679
  -0.9415136  -1.1732848   0.3004872   0.3180551   0.7846576   0.4875924
   0.2200514  -0.1857487   0.0027967  -1.4569784   0.3423614  -0.9292759
  -1.5775031  -0.6154591   0.3256059  -0.0537263   0.0963636   0.0528643
   1.1449525  -0.7090109  -1.2878668  -0.2684979  -0.9659015  -1.1487428
  -0.0386145   0.1387059   0.3999270  -1.2075897  -0.0385884  -0.4266489
   1.3095505  -0.1981596   0.0225972  -0.1022531  -0.2067453  -0.1108087
  -0.6817030  -0.5469608  -1.0335553   0.4405567   0.0190129  -0.0440156
  -0.1863067   0.0521272   0.1788802   0.8418056   0.6446795  -0.2248598
  -1.0040059   0.6699767  -0.0358047  -0.2628187   0.3517442  -0.0325221
   1.2239113   0.5959385  -0.1843311  -0.3840494   0.4069135   0.2691838
  -0.2072469  -0.0436468  -0.2809255  -0.1148874   0.0031421  -0.0242733
  -0.3164918  -0.1103673  -0.0090449  -0.3001552  -0.0059629   0.0438497
   1.8417867  -0.1678927  -0.0145701  -1.3486967   0.2316614  -0.7595822
  -0.2258714   0.2689582  -0.2009893  -0.0231852  -0.3782381  -0.4579821
   1.1003629   1.0042639   1.1798048   0.0329088   0.2043646   0.5153045
  -0.1287743   0.7523986   0.4131006   0.4714852   0.0962890  -0.2071425
  -0.3082171   0.0956283   0.0943330   0.2377559   0.2023907  -1.1687460
  -0.7610509  -1.1505975   0.2020881  -0.0171396  -0.0172190  -0.1626840
  -0.4457376  -1.1310414   0.5401673   0.2955166  -0.3100191  -0.0882106
   0.2492859  -0.2471557   0.0041331   0.9106298  -0.3462081  -0.7316335
  -1.1372408   0.2539884  -0.9868528   0.0786657   0.0944226  -0.3769027
  -0.7979528  -1.4004856  -0.2169273   1.6249524  -0.0025357   0.1575418
   0.1829898   0.2398878  -0.2127320   0.4288505   1.4169125   1.1845946
  -0.4349080  -0.5110024   0.4201493   0.2091294   0.0821258  -0.0064880
   0.0810664  -0.3883832  -0.1663532  -0.1678722   0.0584743  -0.2021606
   0.3641243   0.0725470   0.3167856   0.1076092   1.0900183  -0.4536199
   0.3793005   0.4289056  -1.2468254   0.1630918  -0.1900309  -0.0009194
   0.1150136  -0.2707242   0.2870737  -1.0719902   1.0725349   0.1635286
   0.1403172   0.1092605   0.1050867   0.4070630   1.9864474  -0.3429343
   0.1814911  -0.4992099   1.3176157   0.0035081  -0.1793853   0.0054703
  -0.8430673  -0.2632461   1.0598611   0.6906728  -1.0723039   1.1854142
   0.0020204  -0.0586931  -0.1026503   0.2675849   0.6026293  -0.0070116
   0.2449944  -0.7958874   0.4183176  -0.0564218  -0.0750649  -0.1232946
   0.7145743  -0.3563219  -0.0305731   0.0077445  -0.2184056  -0.1815991
   0.0474588  -0.2051184   0.0606667  -0.5371047  -2.1069545  -0.8412285
   0.5674215  -0.7827391  -0.5719132  -0.3885909   0.2364214   0.1016854
   0.6495038  -0.0246522   0.2248099  -0.2838884  -0.9274517  -0.2157058
  -0.3045480  -0.2140456   0.2591511  -0.3346318  -0.3294313   0.2011661
   0.1525869  -0.3977832   0.8388967  -0.3281866   0.0623234  -0.0009011
   0.1663014  -0.3736808  -0.0906382   1.2835823   0.0682071   1.2447313
   0.0518629  -0.0888915   0.1335707  -0.0739506   0.7118595  -0.0089187
  -0.4952535   1.0502734  -0.1160214   0.1879987  -0.0705189  -0.1543919
   0.1607375  -0.2746256  -0.5388303   0.0883105   0.7416839  -0.1523049
   0.2295331  -0.0935929   0.1301738  -0.8753755   0.7344357   1.4516310
   0.5710312   0.3947200   1.6598637  -0.3576006  -0.0957051   0.0200025
   0.3247998  -0.0411640  -2.0889080  -0.6803293   0.9889781   1.7143643
  -0.2442082   0.0410596   0.2033682  -0.4410741  -1.3520905   0.1832030
  -0.6475627  -0.5299790  -0.7002434  -0.1612981   0.3561560  -0.0083443
   0.0698726   0.5632602   0.3625866  -0.1085244  -0.5684610  -0.1299781
   0.6868204   0.0663321   0.2419258   0.1957226   0.7640168   1.4629001
  -0.0503487  -0.0505517  -0.2760666   0.2067797   0.0413841  -0.0916843
  -0.3139483   0.6183141   0.1720395   1.2125024   0.7594643  -0.3629344
  -0.1880258  -0.2095351  -0.2335239  -0.4882406  -0.0322426  -0.3911163
   0.5575579  -0.1900960  -0.7320322  -0.0039469  -0.1257492  -0.1878829
   0.1635903   0.4905564   0.2179318   0.2768485  -0.8795878   0.0522375
  -0.2025909   0.0950671   0.0944805   1.3468097   1.0820871  -1.3895996
  -0.0982640   0.4956700  -0.1830409   0.0822503   0.1931900   0.2491434
   0.3585887  -0.9580980  -0.1181159   1.3424214  -0.8221541  -0.4069005
   0.3587758  -0.1658665  -0.1146436  -0.5265375   0.7084027   0.9650980
  -0.3825049  -1.1943919   0.2037109  -0.3559535   0.3456623   0.2545131
   0.1975242  -0.1756272  -0.3406820   0.2965181  -0.2193056  -0.5878415
   0.0901757   0.0595628  -0.1189670   1.3364926   0.4912050   0.8394186
  -0.3145691  -0.0303558  -0.8991075  -0.0937637   0.0116087  -0.3557770
  -0.6939473   0.2863781  -0.8003944   0.3733988  -1.1018170  -0.5955745
  -0.0687570  -0.0759885  -0.3123634  -0.1348361  -0.4513527  -0.1428384
  -0.1560829   0.9973261  -0.5200780  -0.4111020   0.0547461   0.3690991
   2.0604120   0.3225143  -0.0214504   1.1835623  -0.0061884   0.7885867
   0.1928631   0.1196593   0.0841704  -0.7059013   1.3201001   1.1144175
  -1.0974190  -0.5886753  -0.6104845   0.1892178  -0.1472626  -0.1441115
   0.1299753  -0.1623684  -1.1315515   0.2682061   0.0886012   1.2167448
  -0.2159508  -0.0725914  -0.0574075  -0.2996486  -0.3876811   1.5969926
  -0.7298770  -0.2165608   0.3814935   0.0288581  -0.1814833   0.2081408
   0.3871044  -0.7661047   1.3136730   0.0653606   1.0139749  -0.4566537
  -0.2369484  -0.0565055  -0.2374138  -0.1926412  -0.7602418  -0.1928616
  -0.1248183   0.4679495   0.4523149   0.1442996  -0.1007288   0.0647029
  -1.0770896   0.0425706   0.4765476   0.6710919   0.0657399   0.6047149
  -0.2109554   0.1569511   0.2164116  -0.5009258  -0.3225007   0.7510732
  -0.3131200   0.0184946  -0.2616081  -0.2252581  -0.0509481  -0.1546362
   0.2781499   1.0782522  -0.2193211   1.5328215  -0.2368139   0.3562181
   0.0569821   0.3146821   0.0412078   0.8343526   1.6307001  -1.3474128
  -0.2580154  -1.2155163   0.7334359  -0.3044509  -0.1498294   0.2766790
   0.0489200  -0.9663595   0.3665246   0.3382276   1.0867041   0.2010168
   0.0617694  -0.2735563   0.2123736   0.1011260  -0.4391375   0.3182860
   1.4444165   1.0678400  -0.1715257   0.0221074   0.2446381  -0.0492787
   0.2447487  -0.1351173   1.1443384   0.6471769  -0.5355989  -0.4567487
  -0.0372328  -0.1439323  -0.0471303  -0.0782524  -0.3636607  -1.7469890
  -0.8096527   0.4006603   1.9101848   0.3556196  -0.1157512   0.2337442
   0.5124282  -0.3981785  -0.5576935   0.0892219   0.2614614  -1.0449578
   0.0744898   0.0135815   0.1630628  -0.9915066  -1.4838430   0.0030001
   0.7587422  -0.4308768   0.1352684  -0.1297260  -0.2552776  -0.0986937
   0.3867901   0.7926421  -0.5537118  -0.1933637   1.3188817  -0.4998037
  -0.2488033  -0.1690333  -0.0056160   1.5632659   1.1782113   1.0970587
   0.9864537  -0.1958690  -0.1673099   0.5933952   0.1381358   0.1179982
  -1.4407579  -0.4945155  -0.3805218   0.5312524   1.0389753  -0.3894294
   0.2011188   0.1201375   0.0048117   0.2825161  -0.3435160   0.4264375
  -0.2628582  -0.2109468   0.4614376   0.0210744  -0.3327910  -0.0211388
  -0.7650187  -0.4454278  -0.2571065   0.4181178   0.6766118   0.6740355
   0.0727923   0.1950604  -0.1191780  -0.8722834   0.0273684  -0.5585031
  -0.5360531  -0.7943181  -0.5608562   0.2403623   0.3881464   0.0590419
   0.6534612   1.3420895  -0.9766427   0.5401288  -0.5839894  -0.1892192
  -0.0568689   0.0651758  -0.2217005  -1.1857558   0.6881695  -0.5056649
  -0.1526648  -0.2244985   0.4439665  -0.3494124   0.0823963   0.0757663
   0.3019514  -0.4928707   1.1657959  -0.0909134  -0.8334189   0.2435347
  -0.2678796   0.1226449  -0.2363266  -0.8023673   0.9213151  -0.6529814
   1.0894080  -0.8198924   1.1163399  -0.1682651   0.1126811  -0.0035422
   0.4365864   0.0387667  -0.8569982  -0.0023004  -0.2251005   0.0778695
  -0.1558955  -0.1464121  -0.3180872   0.2648551  -0.3997456   0.7455525
  -1.0303264  -0.3450309  -0.7173983  -0.0067772  -0.1802119  -0.2154836
  -0.2908777  -0.5730941  -0.1649314  -0.3015130  -1.0030018  -0.7561248
  -0.0723330   0.1831457  -0.1373133   0.6508870   0.2449118   0.3531627
   0.1105726  -0.1743026   0.0982135  -0.0602220  -0.0607602  -0.0652481
  -1.3278755   1.8026587   1.1054711   0.3123463   0.5963737  -0.8450005
   0.0005674  -0.0248860  -0.1284515  -1.1250922   0.6482371   0.6188563
   0.9076766   1.2513583   1.0929719   0.0795110   0.2556845   0.1068932
   1.0177201   0.8673535   0.0217919  -1.3987828   0.7779115  -0.7974112
   0.2700072  -0.1793580   0.0271804  -0.1694682   0.0784689   0.5989305
   1.8657441   0.2569040   0.6670285   0.0575865   0.1318775  -0.0891945
  -0.5953634  -0.2728097  -0.1411067  -0.5230538  -0.8407405  -0.3176630
  -0.3130570   0.1056447   0.1634973   1.2515948  -1.0030946   1.6793516
  -0.0697382  -0.1232231  -0.2580198   0.1132683  -0.0805563  -0.0141426
  -1.0472620  -0.4329558   0.1226865  -0.9589668   0.2434134   0.0940875
  -0.1633674  -0.2423152   0.2901456  -0.2539247   0.1159716   0.6312058
  -0.3122374  -1.1522614  -0.8628165  -0.1025480   0.2055244  -0.0111819
   0.0998107   0.3203799  -0.2440483  -0.6742261   0.2086433  -0.1614290
  -0.1650441  -0.1640248  -0.0887714   0.4937137  -1.2465482  -0.9521975
  -0.9470220   0.6772396  -0.5699515  -0.2819276  -0.0678365  -0.1465204
  -0.3516561  -0.0313009  -0.3581725  -0.0584645  -0.1964971  -1.0089931
  -0.0326546   0.0864763  -0.1052843  -2.3981935   0.2414450   1.5993439
   0.5297444   0.6609137  -0.9647468  -0.1720063   0.1331245   0.0931762
  -1.2620853  -0.9359970  -0.8287213   0.0532749  -0.3041660  -0.7422982
   0.2729790   0.1954366   0.2602529  -0.0065576  -0.5301731  -1.3291017
  -0.6477883   0.0342353   0.0283726   0.2237386  -0.0373958  -0.0398326
  -0.6375712   0.4630412  -0.3974930   0.1812624   0.9207937   0.2509950
  -0.1006155  -0.2892990  -0.1069172   0.6005171  -0.4663099  -0.2475094
  -0.2739836  -0.1236351  -1.2170996  -0.0370571   0.1116903  -0.1750396
  -0.4469122   0.0723198  -0.0660921   0.6321336   1.2108296  -0.2136813
  -0.0932085   0.2132578  -0.3284676   0.4542040  -1.2355355  -0.4336758
  -2.1627673  -0.0886443   0.9627706  -0.2354805  -0.1203000  -0.0034572
  -0.6935840   0.6741878   1.0260748  -0.5569169  -0.3206410   1.5923334
  -0.0757899  -0.0578175  -0.3237793  -0.3785110   0.9717720  -0.6193820
  -1.1485375   0.1664863   0.4435695   0.1981770  -0.0784893   0.3463366
  -0.1620969  -1.3495814   0.4604484   0.4725557   0.0245707  -0.2269978
   0.0108715   0.0475615  -0.0695811   0.6002920  -1.7026896  -0.3898976
   1.5532191   0.4684313  -0.0782972  -0.3482023   0.1454922  -0.0928450
  -0.2150208   0.0272289  -1.1779850   1.6479855   0.6129997  -0.0482546
  -0.0566031  -0.0724925   0.2105633   1.1312430   0.6627637  -0.4085954
  -0.9109765   0.9147985   0.4846966   0.1474211  -0.0252268   0.0463404
  -1.1718698   0.4584857  -1.0763272  -1.6517861  -1.7382451  -0.2223121
  -0.1134823   0.0178654   0.1349411  -0.7257618  -1.8498870   0.5789232
  -1.2173939   0.4793188   0.3176680  -0.3118421   0.2105450  -0.2391224
   0.0368556  -0.6090803  -0.0065719   1.2739499   0.1498888   0.0521760
  -0.0626059   0.3721304   0.1178669  -0.5907879   0.3169236   0.8611450
  -0.1260970  -0.6026216   1.1545693   0.1188653  -0.2237079   0.2682333
   1.6728001  -0.7297781  -0.4534876  -0.1948741  -0.1922499  -0.6661540
   0.2154208   0.1878599   0.1372082   0.6902758   1.2302788  -0.5531466
   0.4835456  -0.1620904   0.4473092   0.4559035  -0.2916035  -0.0729349
  -0.4166641   0.1707294  -0.7686782   0.1899071  -0.0747675  -0.4870639
  -0.0941184   0.1123089   0.0123435   0.8902753   0.5422889  -0.0280028
  -0.4376299   1.2615187  -0.5911929   0.0534108   0.1518916  -0.2162772
   0.4188590  -0.6955607  -0.0609448  -0.0597611   0.7482193   0.9682259
  -0.2494913   0.0111060   0.0175232  -0.9779908  -0.9623533  -0.8004004
  -0.1609414  -1.1711308  -0.3419478  -0.1194421  -0.1901842   0.1877886
  -1.2612807   1.2545319   0.2418333  -0.4577854  -0.2764360  -0.3597076
   0.2084666  -0.3219710  -0.1445968  -0.9394993  -0.1548229   1.4530649
  -0.2251714  -0.9271877  -0.9052643  -0.0617072  -0.1795506  -0.3591349
   0.4998680   1.4051528   0.8604637  -1.2022108  -0.3039496   0.0849296
   0.1184000   0.2536728  -0.0378531  -0.1002463  -0.1487413  -0.9912344
   0.3165353   1.9969379   1.3674820   0.3238269   0.0898496   0.0933077
  -0.3552930  -0.8783504   0.2937220  -0.1164287  -1.0133869  -0.0562844
   0.1885679   0.1182026   0.0328275  -0.1052104   0.1442037   0.8464708
  -0.8145818   0.5915979  -1.1225303   0.2870115  -0.1867797   0.0526158
  -0.7912479   0.4636960  -0.0529050  -0.1798486  -1.0447253  -0.7789624
  -0.1319161   0.1246647  -0.0390773  -0.5909842   1.4245683  -0.9142378
  -0.3200413  -0.2327311  -0.5320609   0.2307274  -0.0260366   0.1528933
  -0.6608304   0.1096539   0.2153840   0.0879052  -1.5419476  -0.5009881
  -0.0701520  -0.0739451  -0.3278962   1.1738121   1.8627782  -0.3675643
  -1.2585925  -0.8542136  -0.4842111  -0.3270822  -0.1735822  -0.2557527
   1.0931852  -0.1535525  -0.0005936   1.2182419  -0.5303329   0.2498643
   0.0315227   0.2801096  -0.0532171   1.1888284  -0.7856746  -0.0351528
   0.4020458  -1.0504489  -0.3607713   0.0288355  -0.0494173   0.2920315
   0.0017252   0.1090669  -0.8882214   0.7970577   0.4766758  -0.3093510
   0.1443544   0.1483383  -0.2108018  -0.0719164   0.5401553  -0.9527704
   1.1773043   0.3008299   0.8099250  -0.1200039  -0.0828831  -0.2567736
   0.3952623  -2.4729072  -0.2728290  -0.6650041   0.8169707   1.9392682
   0.1364325   0.3609922  -0.1114782  -1.7485500   0.7245711  -1.2854937
  -0.1010443   0.1912722  -0.9270167   0.1209625   0.1383653  -0.1661564
   1.3538052   1.0355589   1.2609227  -0.3081271   0.0126555  -0.4632788
   0.0461111  -0.1495190   0.3352585   0.1912567   0.3398325   0.7116081
   1.4826741   0.2352888   0.0383178   0.0972308  -0.1623084  -0.1397996
  -0.2986615  -0.7406712   0.1769938   0.2766150  -0.8921529  -0.4936705
   0.0680632   0.1014286   0.1990118   1.4077817   1.6298900  -1.3657557
  -0.9373204   0.4407255   0.3417695   0.1887067   0.0838371   0.0815196
  -0.8596316   1.5327853   0.5255449  -0.6043807   0.9755050   0.1993314
   0.3591587   0.1752364   0.0488105  -0.8995767   0.8536479   0.2397505
   0.3324192  -0.5936819  -0.0624222   0.1129685   0.2874455   0.0117145
   0.2127715   0.9807152  -0.2312689   0.7900665   0.1234679  -0.0215060
   0.0113847  -0.0580297   0.0616626  -0.3913399   0.2402059  -0.5331359
  -0.0388282  -0.1812317   0.1916934   0.1817122   0.0898016  -0.3118878
   0.6116156  -1.1536632  -0.1999946   0.8105993  -0.0346673  -0.5102717
   0.0323979   0.3132996   0.1066038   0.2425888  -0.9836935  -0.5177889
   1.1185912   0.0907541   0.6697488   0.3844124   0.0654249  -0.6317543
  -0.5473240   1.1409866  -1.2970359  -0.2825238  -0.8295777  -0.7480764
  -0.0237143   0.1112023  -0.1248731  -0.4992666   0.4970098   1.2251101
   0.4854489   0.2713114   0.2080508   0.2365992   0.0533693   0.0875332
  -0.7291466  -1.5900149  -0.4137491  -0.6637300  -0.6341269  -0.6830657
  -0.1527705   0.2368980   0.0933818   1.2361569  -0.3042697   0.7189504
  -0.0290225   0.2108114  -0.2137796  -0.1959901   0.1629877  -0.1165990
  -0.4852983   1.3423029   0.4581485  -0.9949113   0.7717399  -0.0313561
   0.2705677  -0.0687388  -0.1919530   0.4986612   0.8369073  -1.0431490
  -1.2460538   0.1784614   0.1032976   0.0430931   0.0787231  -0.0100843
   0.3289925   0.6600175  -0.7356658  -1.1002675  -0.8462607  -0.7162329
  -0.0827117  -0.3651907   0.0055566   0.9965679  -0.1646411   0.4469635
  -1.3922779   0.7164643  -0.3996990  -0.1904478  -0.0784879   0.1962027
  -1.7359642   0.1403504   0.0221348  -0.4590337  -0.6198475  -0.1115402
  -0.1671666  -0.0775457   0.3275499   1.5106545   0.2559791   0.1577723
  -1.3253988   0.2422236  -0.2533299   0.1197890   0.3763431  -0.4113877
   1.0050654   0.0720315  -0.7218612   0.1265758  -0.5958241  -1.3023678
   0.1174317   0.1576758   0.0090326   0.9100518   0.0663694   0.2794580
  -0.3953385   0.0112212   1.4797131  -0.1633947   0.0006440  -0.3337494
  -0.3476781  -0.6457821  -0.1323027  -0.0650878  -0.3084002   0.3963785
   0.3532634  -0.0937675  -0.1234226   0.9144645  -0.0462861   0.1631162
   0.0675130   0.0013614  -0.8794775  -0.0667973   0.1389060   0.3744732
   1.1664002   0.1998465   0.0332424   0.8111582   0.6027412  -0.7384318
   0.0354877   0.0286628  -0.1029971   0.5481137   0.0877452  -0.1837598
  -1.7909798   0.0162610   0.6653820  -0.0102266  -0.0372496   0.3243738
  -1.0205134  -0.1203287  -0.8337060   0.5647744  -0.1688947   0.9045788
  -0.1585117   0.1597514  -0.1331317   1.1528562   0.1731948   0.1289913
  -0.8289190  -0.0840641   0.0126879   0.1502149  -0.0709280  -0.1824157
   0.3636534   0.3834643  -0.0946689  -0.8092520  -0.3867620   0.6645259
  -0.0956352  -0.0316875   0.1603591  -0.6624602  -1.2961293  -0.9304489
   0.4528733  -0.3256653  -0.8248910   0.1319479  -0.4975812   0.1869703
  -0.2146025  -0.4705183  -0.4964168  -0.9297887   0.7168496  -0.2568798
   0.2798833  -0.0094420  -0.1765636  -1.4690191   0.2099731   0.3272769
  -0.5104588   0.8232385   0.0927186  -0.0730194  -0.1447104   0.2306178
  -0.7784006  -0.2120928  -0.1674783   0.4162462  -0.6233494   0.3567725
  -0.1566523  -0.0708095  -0.0032237   0.1425794  -0.8596330   1.5683892
   1.6972830   0.4658919  -0.6981046  -0.2918276  -0.0111121  -0.0725958
  -0.5013080   0.8734563  -1.1228454  -0.3636986   0.1309294  -0.5358977
  -0.2380937  -0.0695777   0.0190722   0.9705019   1.4012310   0.8218526
   0.3338741  -0.8877361  -0.4444984  -0.0711497  -0.4731035   0.1100915
  -0.2580115  -0.4292113   0.6997199  -0.6591083  -0.4336567  -0.8058857
  -0.1373248  -0.2217461   0.0530451   1.3053082   0.1641184  -1.6074167
   0.9932986  -0.0880880  -0.3773562   0.1634847  -0.2295066   0.0061349
  -1.2495949   0.6726891  -0.3856863   0.1221014   1.3482013  -0.5828513
   0.1805608  -0.0173198  -0.3139711  -0.0812936  -1.7380424   0.3495584
   0.3959769   0.3508507   0.3391652  -0.2765406  -0.1784995  -0.0014614
  -0.6375075   0.8162723  -0.5597157  -0.0112097  -1.2776404  -1.1822556
   0.3304949  -0.1746927   0.0479611  -0.9809074  -0.0704731  -0.0667462
  -1.0329553  -0.2648547  -1.2159068  -0.0184680   0.1101177  -0.1198164
   0.7486204   0.0350576  -0.8437797  -0.7772788  -0.8987704   0.8048456
  -0.2258145   0.1924293   0.1380296   0.8420088   1.6253290   0.7546802
   1.3563813  -1.3644629   0.3108717  -0.2359337  -0.0243811  -0.3136465
   0.9836016   0.0074507   1.5045382   1.0991062  -0.8662597  -1.1026835
  -0.0656755  -0.0053536   0.0253314  -0.2501740  -0.5145123  -1.0384678
  -0.1764890   2.0674481  -0.5267297  -0.0477876   0.0928730  -0.3649136
  -0.0301147  -0.1573744   1.0398905   0.4909140  -0.3487481  -0.2637699
  -0.1576280   0.2572187   0.1302260  -0.4003105  -0.3759263   0.2905567
  -0.5341504  -0.5074587   1.5886430   0.0074525  -0.0441276  -0.0989089
  -1.6568602   1.1409163  -0.5031339  -0.3828908   0.0793901  -0.1224694
  -0.0158859   0.0011244  -0.1717882  -1.0543127   0.2572724  -0.3841207
   0.9437724   1.7675791  -0.9517882  -0.2000848   0.0099673  -0.4956483
  -0.0181233  -1.0130762   0.6787904   0.1138761  -0.3446180  -0.8122998
  -0.0137295  -0.2218154  -0.2437350   1.6894679   0.4467949   0.2811994
  -0.9293297   0.1657964  -0.5566555   0.1985965   0.1807301   0.3196224
   0.5891954   0.0477375  -1.7903360  -0.6863242   0.5695316  -0.4060328
   0.4996127  -0.0387330   0.1177151   0.3114852   0.0488385   0.7545609
   0.0626493  -0.7061743  -0.5501451   0.1061556   0.0053287  -0.0013630
  -0.7276558  -1.5695529   1.3803536   0.5306999  -0.9413104  -0.4289683
   0.1478864  -0.4095388  -0.2975317   0.0716561  -0.1559499   0.1763191
  -1.3683471   2.0665048   0.2138685   0.1530982  -0.0078377  -0.2089289
   0.5441657  -0.0717677  -0.6088272  -1.5953382   1.6057877   0.5831400
  -0.1781064   0.0541323   0.0299986   0.2984000   1.1752346  -1.5227477
  -0.1321959   0.9146988   0.8997958  -0.0383494   0.1158630   0.2042298
   0.1716399   0.7835916   0.6356198   0.5295278  -0.7799929  -0.5425319
  -0.2725255  -0.1290483  -0.1758378   1.2533075   0.9510865   0.8686191
   0.4663376  -0.0826004   0.3031420   0.2307422   0.1329420   0.1274019
   0.6041446   0.1135893   0.4090005  -1.3231964   0.3860046  -0.1399723
  -0.1667543  -0.4307199  -0.0362777   1.3913196  -0.9344853   0.5270238
   1.6183444  -0.7612373   0.2766376  -0.2509452   0.0588124   0.0151739
   0.8368944   0.4260870   0.0668456  -1.0684578  -0.2429211  -0.4602206
  -0.0888127  -0.0977136   0.0417767   0.6888127   0.8004958   0.4854213
  -0.2439339  -0.1883590   0.6946708  -0.0406669   0.0880005  -0.3517847
   0.7928981   0.7163508  -0.0508125  -1.5107038   0.8696305  -1.0658203
   0.4274967  -0.1093233   0.1163161  -0.5781358   0.0543449   0.8325661
   0.8952390   0.5551441   1.1807481  -0.4428497   0.0761692  -0.0575017
  -0.3747191  -0.5221591   0.4665005  -0.1994440  -0.4441706   1.5513054
   0.1144480   0.1562213   0.1289499   0.2655044  -0.7091712   1.7806128
   0.7293145  -0.9048159   1.8692238   0.3330898  -0.2492181   0.1180015
  -0.9371659  -0.9121596   0.0820723  -0.6949829   0.4328734   0.6743812
  -0.3037661  -0.1075917  -0.0592789   0.9282961   0.4415729   0.2496117
   0.7779362  -0.5739153   0.7678930  -0.0519240   0.1350703  -0.0472072
   0.9529876   1.7955112  -0.0386818  -0.8691121   0.8466009   1.3243334
  -0.1475507   0.0095795   0.1542743  -0.0429410  -0.1113490   0.9102619
  -1.4431739   0.3368766   0.8703521  -0.2429193   0.1893846  -0.1099330
   0.3383981   0.4400082  -0.7882532  -0.8939133  -0.3792777   1.1812847
   0.1499012   0.1535755   0.0554355  -0.5825052  -0.3312062  -0.7900170
  -0.0218628   1.0130839   1.5047238   0.0527110   0.1779892  -0.0920239
   0.5013933   0.9193585   0.1809044  -0.4782861   0.4688773   0.1647934
   0.2016813   0.1481363   0.0562520   0.2229260   0.1788547  -0.1526630
   0.7522608   0.8079550   0.3283121   0.1036507  -0.2312317  -0.1805374
  -0.1145470   0.3640799   0.1981094  -0.2132549  -0.1321285   0.3949214
   0.1505259   0.0993354   0.0640018  -0.1952187  -0.1711383  -0.4266055
   0.6012632   0.7439842  -0.6870694  -0.3113889  -0.1680106  -0.0492592
   0.2388418   0.0972244   0.8082970  -0.0628232  -0.1288102  -0.5647949
   0.1062170  -0.2811922   0.1578759   0.0110845  -1.5346137   1.2973608
   0.0449206  -0.9788628   0.6869221  -0.0485685  -0.1182383  -0.3056881
  -0.1312799   0.3326830  -0.8276760   0.4210439  -1.7636413  -1.1707639
  -0.2534531  -0.0083704   0.0588594   1.2287432   1.1468209  -0.9080261
   0.5362909   0.5443536   1.4775374  -0.3772974  -0.2570660   0.2096186
   0.9889431  -0.1385033  -0.3717167   0.6351480  -0.0908002  -0.9273367
   0.0309336   0.0726005  -0.1345870   0.2684367   1.4418344  -0.5997395
  -0.1431939  -0.3499170  -0.1592881   0.0706699  -0.1956599  -0.1724734
  -0.4231199  -0.1463988  -1.4362857  -0.2329749   0.6743567   1.0602032
  -0.0420667   0.0450763  -0.0557004  -0.7380146  -0.8685440   0.1075363
   0.3322953   0.1542488  -0.5434231  -0.0827026   0.2716274   0.0965262
  -0.5005574   0.2350215   0.4213096  -0.5354295  -0.3300654   0.0185016
  -0.2159206  -0.0867385  -0.1831075  -0.3492077  -0.3509693   1.9066625
   1.0114230  -1.6298932  -0.1747315   0.0144474  -0.1682891  -0.2946323
   0.6875461   0.1002917  -0.2947311   0.5727689   1.2810634   0.9560813
  -0.0705274   0.0483857   0.1147330  -0.7602611  -0.6707325  -0.1842628
  -1.2218772   1.4540073  -0.0407504   0.1979470  -0.1319662   0.0608683
   0.1965583   0.3967942  -0.2192365   0.0154899   0.5170357   0.1537283
   0.0615352   0.1532068  -0.2198313  -0.7505466  -1.2346647  -0.7740962
  -1.1392047   0.2995909   0.0427129   0.0760695   0.2660114   0.2351653
  -0.7211419   1.2317282  -0.0070185  -1.2217847  -0.5521355   0.4645837
   0.0903203  -0.4275875   0.1501397  -0.0091932  -0.7161410   0.5752248
  -0.0311695   0.5177644   1.5435247  -0.1978082   0.2695376   0.1639475
   0.5595879  -0.9001634  -0.2157182   0.1254456  -0.6549140   0.0828010
  -0.0610434  -0.0948595   0.1790131  -0.0652289   0.6066078   0.6008501
   0.2942682   0.3658551  -0.6518845   0.1046559   0.0093465   0.0764816
  -0.7056833  -0.1623383  -0.6543877  -0.3182809  -1.0599564   0.6638577
   0.0824774   0.2303839  -0.3569679   0.5368191   1.2018799   0.4388838
   0.6276243   1.4087091   0.4909951   0.0583951   0.1258111  -0.3950866
   0.1333858  -1.1013373   0.0048046  -0.4147631  -0.0591829  -0.4061750
   0.0397635  -0.2693142   0.0893775  -0.0567693  -0.2939260  -1.3166086
  -0.3211119   0.3572209  -0.9611696   0.0350377   0.1111340   0.1877633
  -0.8583848  -0.2273473   0.4096564   0.3506653   2.0011666   0.2811750
   0.1893861  -0.0908993   0.2114145   0.1746099  -1.4289053   0.0653474
   1.3883378  -0.1674698  -0.3648643  -0.2755048   0.0257923  -0.1726519
   0.8292403   0.6028956  -0.9646957  -0.5780418   0.5371207   0.3634610
   0.0939250  -0.1223660   0.1844356  -2.4154362  -0.2797955  -0.2656071
   0.5174809  -0.2648864  -0.3682791   0.0421323   0.2397331  -0.0784956
   0.4282772   0.6906941  -0.1524362   0.1595072   2.3169488  -0.0496086
   0.2062045   0.4733408  -0.0392716  -0.4567512  -0.3052211   0.7127997
   0.0149878  -0.2385618   1.5619451  -0.2499870   0.3065225   0.0946389
   0.4690468  -0.0240869   0.0252116   1.0987225  -0.3989356   0.1844251
   0.0626557  -0.2985337   0.0138616   0.1188259  -0.2861320  -0.4432861
  -0.4651309  -0.4703793  -1.0298403   0.1633488  -0.0713197   0.0338936
   0.9582059  -0.7380690   0.0649437  -0.6146571   0.0861465  -1.2047737
  -0.1014983  -0.1062420  -0.2024000   1.2270596  -0.0945581   0.2962786
  -0.0634409   0.2344562   0.1718991   0.0423914  -0.2628400  -0.1234938
  -0.0613431   0.2064641   0.1504122   0.7516768  -0.7742908  -0.5747234
  -0.2138746  -0.0842294  -0.1215865  -0.5710993  -0.2501956   0.2910378
   0.9784381  -1.3682919   2.0057168   0.0536860   0.0997019   0.1084668
  -2.2078782  -1.6843018   0.1703629  -0.4103886   0.7269749   1.1625282
   0.1453753  -0.0190762  -0.0271177   0.4331255   1.0345631  -0.1413391
   0.3332993   0.8527171  -0.1633669   0.0432499   0.1497212   0.2850816
  -0.5016885  -0.0675455   0.7081319  -0.5402563  -1.2543352  -0.2132587
   0.0494879  -0.0053111   0.1187847   0.2112993   1.4788719   0.7773046
  -0.2759125   0.5291817   0.4818114  -0.1937606  -0.1565228   0.0718608
   0.6007371   0.2797246  -0.7101885  -0.5055000   0.7755176   0.0551321
  -0.1284881  -0.0089857  -0.0208834  -0.5564128   0.0941607   0.0487320
  -0.2592086  -0.5401310  -1.3632880  -0.2939399   0.0707320   0.3287323
   1.0310396   0.3951534   0.3299557  -0.3788209   1.1731833   0.2133421
  -0.3167723   0.0124988   0.3598964   0.3811606  -0.3154056   0.3369581
   0.2300562   1.2511047  -0.0572028   0.1219785  -0.0856885   0.2753901
   0.8093283  -0.2198711   1.0586838  -0.2101469   1.7351321  -0.6014653
   0.2894902  -0.1566035   0.1240587  -0.0256093  -1.4531716   0.7342967
  -2.2374588   0.1160048  -0.0609300   0.1372087   0.1003281   0.0071276
   0.0751216  -0.6328020  -1.4963854  -1.1577244   0.0491513  -1.7891982
   0.0922596  -0.1447277   0.2595416  -0.6131863   0.3782099   0.2812168
   0.9782847  -0.3524470  -0.0441169   0.0745898   0.2095510  -0.0934630
   0.3934868  -0.7289313   0.7452497   0.1262105  -0.1639373   0.9637777
  -0.0935977  -0.2283465   0.1164680   0.1887811  -0.6957065   0.7349116
   0.9279016   0.2536335   0.4348061   0.1356669   0.4574248  -0.1207604
  -1.2164774  -0.2325808   0.1352097  -1.0937070   0.1494422  -1.4513322
  -0.3970254  -0.0874504   0.1870390  -0.1391703  -0.0972190  -1.0118410
   0.4488788   0.4511371   0.8451378   0.1484613   0.2343833   0.0351454
   0.3362361  -0.3455799  -0.2858109  -1.8278477  -1.0547150  -1.8755437
   0.0887729   0.1161332   0.2399265  -1.4166236   0.8964224   0.2327584
  -0.5685335   1.7405958  -0.0144972   0.2027236   0.1083896  -0.0991749
  -0.8666376   0.1386950   0.3748163   0.4322168  -0.3429976  -1.1632254
   0.4276088  -0.0233233   0.0459515  -1.1123417   0.3972572   0.0695267
   0.1793006   0.3184628   1.7046240  -0.0795270  -0.0240240   0.1690058
   0.1992322  -1.3273831  -0.5205187   0.2796290   0.0824525  -0.1813065
  -0.3706682   0.1624608   0.1083211   0.6861133   0.2038830   1.3503169
  -0.2279546   0.2181982   0.7696333  -0.2520492  -0.3173463   0.1138737
  -0.6719989  -0.0096978   0.3497991   0.9139930  -0.3504369  -1.4329743
  -0.1574643   0.1035593  -0.0772312   0.8030627  -0.0976332  -0.6274998
   1.1582902  -0.0179136   0.2058331  -0.2125919  -0.1341296  -0.2419910
  -0.3790792  -0.4212734  -0.2509835  -0.4179855   1.2739602  -1.6858693
   0.3118974   0.1547144   0.0763934  -0.3322396  -0.3225404  -0.6730230
   1.9787569   0.4471037  -0.5851917  -0.1127182   0.0011762  -0.1412016
   0.3966613   0.2332493   0.1328445   0.1415591  -0.1227206   0.1272807
   0.0870773  -0.0623668  -0.0282187  -0.5878363   1.0047215   0.3970925
  -1.5485744  -1.2402565   0.4564861  -0.2088566  -0.0243693   0.2215159
  -0.1418883  -0.8539542  -0.4727225  -0.0093791   1.2733813   1.5750758
   0.1091857   0.1970814  -0.0410804  -0.3145736  -0.0906373  -0.3504721
  -0.2067525   1.0478903   1.1185571   0.1467626  -0.3202585  -0.1060399
   0.1457624  -0.5733810  -0.7346915  -0.0195357  -1.3347951  -0.2065728
   0.1649934   0.2072164  -0.1743383  -0.2259298  -0.1670853  -0.7843317
   1.5594852   1.2059371   1.4306373   0.1895692   0.2788579   0.1706396
  -0.4471665  -0.2941147   0.6843153   1.4893507   1.2700167  -1.3013014
  -0.0885102  -0.2683614   0.1715460   0.5804202  -0.2967923   0.0231596
   0.4075815  -0.0108440  -0.7014241  -0.0579258  -0.2859530   0.1490947
   0.0785786  -0.3657831  -0.2723212   0.4474860  -0.0757234   0.1487417
   0.0714979   0.4012498   0.1187769   1.1829811  -0.7402430   0.0035722
   1.0368863   0.1717377   0.8125054  -0.1444602   0.0097567  -0.3151682
   1.2189063   0.6483019  -0.3706976   1.2203961   0.1786406   0.8827212
   0.1284599   0.0398383   0.1470657   0.3404218   0.4347330   0.4013531
  -0.1212391   0.6223972   0.0077648   0.0689746  -0.1846319  -0.0705574
  -1.5644593   0.0280655  -0.1754927   1.4282978   0.4140821   1.0430088
   0.0604600   0.1500093  -0.1192270   0.2951650   0.3486379  -0.0635940
   0.8546561  -0.5004495   0.3187770  -0.1183822  -0.0643827  -0.2635992
   0.7488877  -0.7764621   0.7842868  -0.0058947   0.0658111   0.0646032
   0.2995854  -0.4654500   0.1934594   0.9075797   1.0408453  -0.3340477
  -0.0327412  -0.7711170   1.2124063   0.0845781  -0.0534993   0.0714274
  -1.1078947   1.2420223   0.1248139   1.2418385  -0.0699469   1.1938146
  -0.1062334  -0.4111594  -0.1284616  -0.9471018   0.2949908  -0.0138829
   1.4264540  -0.9138926   0.2903776  -0.0080108   0.0578619  -0.0979906
  -0.2378844   0.3485471  -0.3326540  -0.5351278  -0.1400842  -0.2538241
   0.1647572  -0.1769937   0.0463085   0.4236311   0.5248400   0.4643520
  -0.7498082   0.1257640   0.2249818  -0.3684346  -0.2093733   0.4681083
  -0.4666646  -0.1381399   0.0459838   0.2517317  -0.0608009  -0.0575477
   0.0020602   0.2899376  -0.3016724   0.2775869   0.4657441  -0.4589557
  -0.1093431  -0.7093495  -0.5399573   0.2414185   0.0025883  -0.0298900
   0.0391478  -0.1063587   0.3009270   0.3727085   0.2103124  -0.4509247
  -0.1112821  -0.1480626   0.0430531  -0.1132888   0.5625288   1.3818559
   0.3132363   0.3349360   0.9069299   0.2598667  -0.1399001   0.2171914
  -0.5793779  -0.0186619  -0.4737376  -0.7479118   0.3185744   0.2172353
  -0.0989717   0.0091753  -0.2357260   0.4581149   0.2967469  -1.2058621
  -1.1174751   0.4331699   0.8369284   0.2503295   0.0459592   0.2203257
  -0.1361789  -1.3878732  -0.6656314  -0.2198501   0.6459972   0.4530560
  -0.1493999  -0.2076372  -0.2603793   1.1394716  -0.1947445  -0.1948990
  -0.5510114  -1.5978677  -0.4605818  -0.2058847  -0.2057762  -0.0055172
  -0.0923006  -0.8273027   0.5811938  -0.7525284  -0.0679549   0.4510953
  -0.0088457  -0.1117021   0.3099908  -0.5821647   0.9096755   1.3746975
   2.0370994  -0.9704987  -0.4332051  -0.1105203  -0.1116390  -0.0329313
  -0.4760940   0.2406414  -0.3209738   1.1219261   0.1012066  -2.0724629
   0.0101325  -0.1634223  -0.1310301  -0.9756721   0.2997568  -1.4370304
  -0.3692974  -0.4045455   0.4515230  -0.1347720  -0.0033157   0.2659434
   1.8553301   0.2543895   0.1579281   0.2399403   0.8151049  -0.5433280
  -0.3806436  -0.1541382  -0.0619078  -0.1969279   0.3654737   0.2091923
  -0.4908100  -0.6120848   0.7674621  -0.1090609  -0.0135577  -0.4307773
  -0.5782527   0.6910480  -0.5641502  -0.6645809  -1.4577387   0.3907299
   0.0926591  -0.3722705   0.1622327  -0.3227490  -0.5638756   0.1426403
   1.0212898  -1.1792847   0.2102700  -0.5112129  -0.0005607   0.2065094
  -0.2390892   1.1826584   0.2357643  -1.1426806   0.2854475  -0.0488400
   0.2596760   0.1676011  -0.1624952  -0.1988921  -0.1513947  -2.2425692
   0.3244334   0.1874576   0.6036962   0.0074738   0.0592112   0.0009241
  -1.7288296  -0.2781130  -0.3681819   0.8644925   0.7055462   2.0127483
   0.0270157   0.2451234  -0.1971746  -1.1112389   1.5826192   0.3400915
  -0.2853452   0.2503263   0.2925511   0.2665803  -0.0663854   0.3548722
   0.4367639   0.4478744  -0.7465016  -0.0158438   1.4507689  -1.3259112
  -0.1438738  -0.1816002  -0.2682722  -0.8719491   0.2003368  -0.5133127
  -0.2426838  -0.1037697   0.3949797   0.0935894   0.2137626  -0.2294601
   0.9818248  -0.2318997  -1.2229274  -0.0703437   0.2389461   1.6131465
   0.3219126  -0.1593339  -0.1532292  -0.6675514   1.3698783  -0.5554256
   0.1165002  -0.9486775   0.9931332  -0.0401772   0.0997128   0.2902104
  -0.0610345   0.5920858   0.1444113   0.6064385  -0.2558764  -0.5949065
   0.0011408  -0.1427569   0.2110100  -0.3017137   0.4414046  -1.3828604
  -0.4720298   0.3348816  -1.2366714   0.0371863  -0.2849552  -0.2547079
   0.0806359  -1.1655265  -1.4758766  -0.6779097   0.7247795   0.5999396
   0.1248898  -0.0586399  -0.3008340   0.9197162   0.8846333  -0.6431643
  -1.1179875  -0.8864859   0.6750537  -0.1531526  -0.1983207   0.2946591
  -0.1371674  -0.7566293   0.0946426  -0.1877306  -0.0473434  -1.3809511
  -0.1632321  -0.1189106   0.0347162  -1.4934818   0.0257948   1.1398586
   0.3268636  -0.4437298   0.1290955  -0.0293130  -0.2052377  -0.1989356
   0.2759909   0.2679951   0.2829452   0.3555701  -0.9272670   1.5974440
  -0.0028545   0.0838681   0.3073093   1.1135776  -1.1095532   0.6573908
   0.6700065   0.4347403   0.2106998  -0.0906420  -0.0977774   0.0385656
   0.1200824   0.1701943  -0.6129548   0.5968194   0.0091509  -0.1155401
  -0.2025640  -0.2733794  -0.2033029  -2.0231831   0.5358809  -0.3973625
   1.2065121  -0.0603922   0.2401947  -0.1692828  -0.0489063  -0.3503931
  -0.7294667   0.7547687  -0.9206487   0.1369597  -0.7573905  -0.6914282
  -0.1279102  -0.1444202  -0.1941067   0.0447456   0.2571098  -0.8429027
  -0.0350115   0.0395844   0.4826802  -0.2811923  -0.3058365  -0.1102818
   0.5876704  -0.6108596   0.8961074  -1.9262115   0.9159753  -0.6244170
  -0.4125527   0.1635854   0.4613875  -0.1511402  -0.1409509   0.8647295
   0.1291456   0.3500413   1.0345086   0.0712195   0.3511657  -0.1696194
  -0.6648355  -1.9221889  -0.7954057  -1.3411901  -0.7711194  -0.0566532
   0.2785007   0.1042056   0.6699036  -0.5189281  -0.1163699  -0.8924939
  -1.2914329   1.3121696   1.1628880  -0.1257342  -0.0701085  -0.2069001
  -0.4450069   0.8565965  -0.8850056  -0.1398825   0.9699697   1.3785974
   0.0360339  -0.1961791  -0.0801194   0.7420640  -0.7767096   0.3767203
  -0.9414569  -0.1081724  -1.8025222  -0.1078460  -0.1552661  -0.0641002
   0.4555131   0.3449524  -0.6350311   1.1797540  -0.1982798   0.6537178
   0.1481944   0.3125385   0.2425890   0.5052078   0.0223925   0.7719606
  -0.4448416  -0.5498457   2.1039844   0.3367617  -0.1106552   0.4028828
  -1.0531153   0.5625285  -1.2452102   1.1409590  -1.0900685  -0.9376221
   0.1350862  -0.0693998  -0.2145433  -0.9315885  -0.6424010  -0.6077027
   1.1783824   1.8148562   0.3333898   0.2082094   0.3087217  -0.0153448
  -0.1447103   1.9071008   0.8502057   0.8607947  -0.0071627   0.2029720
   0.1570055  -0.2585190  -0.0633671  -0.0895846  -0.1706176  -0.9597206
   0.9981687  -0.0393295  -0.6157766  -0.1930050  -0.2549132  -0.0795593
  -0.0945543   1.4163775  -0.6345433  -0.0923442  -0.7404011  -0.5897983
  -0.0189397  -0.0705713  -0.1571698  -1.1890103   0.8577505  -0.4239480
  -0.1009412  -0.5840384   0.7833631  -0.0137330  -0.0975780  -0.1308867
  -0.7592371  -1.1262121  -1.2703960  -0.4016567   1.9276461  -0.4001772
  -0.0615130   0.3829386  -0.1578507  -0.5157301  -0.0016348   0.2557810
  -0.8311868  -0.5558218  -0.6500170   0.0804435  -0.0741753  -0.1215472
   0.3116918   0.4232739   1.7769498  -0.8258993   0.9989176  -0.0589905
  -0.0377744   0.2461158  -0.1050276  -0.2064427   0.4895661  -0.5872201
  -0.4537976  -0.2634876  -0.5864630   0.0179333  -0.0857490   0.2988866
  -0.8857136   0.4147053  -0.0999520  -1.5614863  -0.2315008   0.2513121
  -0.1207598  -0.0509063   0.0576514   0.1151506  -0.4875660  -0.5128197
   0.2537385  -0.2581136  -1.3661347   0.0920950   0.2832849  -0.0973825
   0.2520134   1.3864601   0.2899757  -0.2055531   1.3538715   0.0197908
   0.1314757   0.0707759  -0.1816294  -1.4430411   0.8960707  -0.3771226
  -0.6877597  -1.1675267  -0.6432676  -0.2073387   0.1951220   0.0601788
   0.1021269   0.3388515   0.8566963   0.4416003   0.1728386   1.7161616
  -0.0145118  -0.1895297  -0.0442981  -0.3139583  -0.6112073   0.7768888
  -0.0825817   0.6463835   0.5914339  -0.1744522   0.0405765  -0.2316330
  -0.6651144   0.5140725  -0.6075074   1.2380747  -0.4325103   0.1602639
   0.0684768   0.0780268   0.0204353   0.4685303  -1.0649052   0.4769581
   1.3193378  -0.4150307  -0.6549393   0.1507823   0.2729794  -0.1961941
  -0.8065440  -0.7330799  -0.7387268  -0.9192474  -0.2669753  -1.6108447
  -0.0829538   0.0418983  -0.1384717   0.1052622  -0.3881391   0.8025012
   0.3727391   1.3159283  -0.8593598   0.1567032   0.0810662   0.3684667
   0.7952343  -0.1736214  -0.0585916   0.9451530   0.3202559   0.5272350
  -0.0591916   0.2692538  -0.0306427   0.5308290  -0.8950345   0.2670719
   0.0954106   0.6671070   0.9380830   0.0975298  -0.2891898   0.1328782
   1.4180845  -1.3275940  -0.6468665   1.1144284   0.1426617   0.2920404
   0.1871670   0.1392517   0.0015325   0.7953942   0.1828461   0.3053062
  -0.8991043  -0.5746166  -0.2960405   0.0206870   0.3261488  -0.0632396
  -0.0731399   0.5853333  -0.6510264   0.3611602   0.4391018   0.4987665
   0.1826084   0.1818764   0.1130895   1.0358809   1.3223298   0.0226346
  -0.1764400   0.1818331  -1.0347591   0.0663386   0.2050346   0.1367369
  -0.3591057   1.6642654   0.3424591  -0.3791050  -0.3364767   1.4050416
  -0.1162282   0.1748962   0.1295391  -0.1129608   0.8049939  -0.3857587
  -0.7142017  -0.4258112  -0.2365479  -0.1063717  -0.2707505   0.0963421
   0.0852868  -0.2908591  -0.4613217   1.0496291   0.7636456  -0.9447354
   0.0910445  -0.4042196   0.0737151   0.8508707  -0.5510101   0.2097591
   0.0772676   0.6739327  -0.5624097  -0.0765152  -0.2632157  -0.0935413
   0.3073398   0.6257930   0.5485683  -0.6080993   0.4998368  -0.1059337
  -0.1590237   0.0794760  -0.0671742   1.7301126  -0.0689280  -0.3584492
   0.9346251   0.3319021   0.9061482   0.0366131  -0.2117960   0.0052025
  -1.4811324  -1.0604608  -0.0356529  -0.5418060   1.2160556  -1.6599135
  -0.0566687  -0.1350278  -0.2869818   1.7403121   1.0960527   0.2149188
   0.9440640   1.6379229   0.0859727  -0.2003648  -0.1575348  -0.1946362
  -0.7436866   0.0476844  -0.1732410  -0.6953292  -0.0553135  -0.1244883
   0.0289814   0.2324050   0.3842752  -0.5144650  -2.8135043  -1.0430865
  -0.6764356  -0.3310529   1.4181848   0.0352495  -0.2019701  -0.0505391
  -0.4676485  -0.3737585   0.1302114  -0.4942449   0.3268854  -1.3534647
   0.0830523  -0.0031951   0.0377714   0.2873267  -1.0415909  -0.6415550
   0.4742469   1.2886171   0.9295994  -0.1219680  -0.3016102   0.0079970
  -0.5051179  -0.1202030  -0.5315290   0.1503468  -0.4424699  -1.5272396
  -0.2377952  -0.0528557  -0.1048039   0.4590457   1.6913247  -0.6583149
   0.2606988   0.1116992  -0.8274955  -0.0318086  -0.3184289   0.3821848
   2.0719057   1.4448938  -0.0151143  -0.1806986  -1.5570780   0.3648416
   0.0598328   0.0732783   0.0063862  -0.4210890   0.2159492   0.5689609
  -0.8684574  -1.5168726  -0.7058303  -0.2410048  -0.1480598   0.3157196
  -1.0059922   0.3532471   0.0987856  -0.6949246   0.7301980   0.4357688
   0.2600197  -0.2364554  -0.2984959   0.4125643  -0.1914674  -0.4397690
  -1.6340014   0.3692295   0.7502918   0.4271272   0.0819313  -0.2054888
   0.7563720   0.4974213  -0.2101367   0.4718401   0.2056243   0.2269966
  -0.1206740   0.1006937   0.1301672   0.7627875   0.4953411   0.2959567
   0.8481449  -0.3342109   0.0411453  -0.0978632   0.0152759  -0.0631131
   0.5037032  -0.6878446   0.2252366  -0.6646381  -0.0348872  -0.3574724
   0.1246515   0.0339922  -0.0036610  -2.0823382  -0.6940722   0.2914427
  -0.2997364   0.5589961  -1.1124416  -0.2295962   0.2342553   0.0667035
  -0.2537500  -0.0348189  -0.3846589  -1.0275257   0.1594317   0.9876570
  -0.0754580  -0.1127472   0.0894864   0.5754785   0.0598327   0.0271557
  -0.9720732   0.1559188   0.4499721  -0.0932204   0.1261379   0.1062474
   1.3496562  -0.5893084  -0.3059883   0.5831593  -0.5224729  -0.6411314
  -0.0876241  -0.0402606  -0.1395820   0.2264239   2.2946756  -1.4915449
  -0.7964669   1.1663230   0.2342413  -0.0760003   0.0713630   0.2770839
  -1.8142521  -0.7921417   0.7527870   1.0565649   1.1766408   1.3873602
   0.0166283   0.3156974  -0.1385538  -0.7212187   0.2617101   0.0740923
  -0.0267099  -1.3933834  -0.1375104   0.1204080  -0.0570473   0.0873565
   0.4784305   0.3922034   0.8637229  -0.5336795  -0.0074754  -0.0033613
   0.0428031   0.0952042  -0.2893980   0.7411390   0.4566954   0.6245644
  -1.7206939   0.1802421   0.8493955  -0.5156666   0.1058593  -0.4620841
   1.2142827  -1.2036705  -0.2795350   1.3407914   0.4916020   0.5636420
  -0.2264172  -0.0890570   0.1267366   0.5953960  -0.0096588   0.6058137
  -0.8200785   0.0486426  -0.1427725   0.3913854   0.2735903   0.2016170
   0.1138343  -1.1387621  -0.5523273  -0.4103257   0.5484034  -0.6316145
  -0.0535213  -0.1235926  -0.1765885   0.9070108   0.1248484  -0.6085949
   0.9701348  -1.0868802  -0.2639249   0.0940762   0.1864259  -0.1616631
   0.6964804  -0.8885056  -0.3449039  -1.1125786   0.2808779  -0.0723152
  -0.0144335  -0.0635038  -0.1842978  -1.2411304  -0.2858122   0.0565998
  -0.1598590  -0.4360740  -0.0303846  -0.1230648   0.1353552   0.2390921
  -0.3527380   0.2154395  -0.7279922   0.5441116  -0.2788794  -0.4950550
  -0.0641970   0.0748396   0.0714957   0.8899847   1.1481483  -0.4460896
  -0.0749290   0.1657064   0.2857094  -0.0798114   0.0140693   0.1231966
  -0.4388879   0.9304293   0.4373334   0.1544450   0.5420783  -1.3278920
   0.1987389   0.1826740   0.1319793  -0.3774474   0.6705374   0.0719858
   0.5299948  -1.0335104   0.3698108  -0.0720088  -0.0258999   0.1927347
   0.1620161   0.6635431  -0.7355067   0.6461824   0.2987007   1.4385664
   0.0732674  -0.2606419   0.2501791   1.6860420  -1.4273409   1.5221157
   0.2727588   0.7633318  -0.3342416  -0.3011393  -0.1675091   0.0823865
  -0.0942035  -0.1496025   0.6438736   0.0496606   1.2785144  -0.7385157
  -0.0495520  -0.2320221  -0.3444376   0.6437026  -0.5099843   0.8259210
  -0.3820978  -0.3035344   0.0325372  -0.3090723   0.0964358  -0.0146421
  -0.6454375  -0.1837063  -1.8993187  -0.6769692  -1.2471491   0.3190868
  -0.1526092  -0.0930946  -0.1194261  -0.5639498  -0.5223041  -0.5965174
  -0.0000657  -0.4866618  -0.9556761   0.2013405   0.2445284   0.1514071
   1.7569610   1.1227491  -1.0745030   0.6764327  -0.3467949   0.3846061
  -0.0261116   0.2670637   0.0543967   0.0037417  -0.8845663  -0.3382649
   0.1128942  -0.5128298  -0.0560666  -0.0811387  -0.0360839  -0.0419692
  -0.1055599  -0.1080304  -0.3869859   0.2075181  -0.9767716  -0.1562981
  -0.0082072   0.2504651   0.0111784  -1.3435146   1.0257960   1.2905876
  -2.5362822  -0.1094308  -0.3261836  -0.1156590   0.1103744   0.0602468
  -0.1873984  -0.6873833  -0.9129867   0.1297437   0.7911244   0.9459661
  -0.5333820   0.1786873   0.0344764  -0.3347494   0.2840199  -0.0549706
  -0.5604060  -0.5572097  -0.3978183   0.3044447  -0.0419726  -0.1745513
  -0.6295450   0.3625000   0.4892754  -0.0774122  -0.0508828  -0.0696084
   0.1245039   0.0725720  -0.1005881   0.1761107  -0.1776275  -1.4961612
  -0.6167011  -0.4139550  -0.1052503   0.2398627  -0.1124825  -0.1419866
  -0.0776193  -0.1073412  -0.1531769  -0.0520788   0.4686873   0.3656801
  -0.2699547   0.2823567  -0.3764413   1.2665853   0.2019523   0.6537600
  -0.7356108  -0.1831294  -0.3295534  -0.1293583   0.4911022   0.0728974
   1.0817386  -0.5520325  -1.9668506   1.0117724   0.7174289   0.0507921
  -0.1099694  -0.1397707   0.0613231  -0.7811931  -0.0194477   0.6020116
   0.7042553   0.0976349  -0.0868119  -0.3422936  -0.3269067  -0.0394485
   1.3124031  -0.5761628   0.4260207  -0.2041426   0.1648301   0.3016147
   0.0277937   0.2860177  -0.0871152   0.3085464   0.3073008   0.7396867
  -0.1409854   0.5551436   0.1847092  -0.2130128  -0.2369394   0.2304176
   0.3886484   0.5588192   0.6946969   1.9189434  -0.4562412   0.3962032
  -0.0365059   0.1636633   0.1116338   0.4302851   0.4491743   0.3005082
  -0.4075991   0.3170405  -0.8823261  -0.2037184  -0.0299896  -0.0400365
  -0.1487591  -0.6578901  -0.6151904  -0.5063961  -1.3313533   1.6211566
  -0.1827438  -0.2078457   0.2197612  -0.7630095   0.3086828   0.8422839
  -0.9243935   1.0146704   0.5887255  -0.1621227  -0.1340626  -0.1291825
  -1.1161776   0.7260746  -0.7544226   0.6054018   0.5442702  -1.0105387
   0.2169608   0.0692477  -0.0210546  -0.2919724   1.6191468   1.5015216
  -0.2398512   0.5128786   0.0482591  -0.0855552   0.1378463   0.4857285
   1.6829987   0.4156583  -1.8697618  -0.8198002   0.2301892  -0.5873447
   0.0546836  -0.4808187   0.2497894  -0.4230012   0.0549469   0.7753481
  -1.0325844   0.3486420  -0.8764596  -0.0814235  -0.1158316   0.0176519
   0.2567178   1.0518905  -0.2028090   0.4596045   0.8873407   0.6568124
   0.1464194   0.1684172  -0.0763196  -0.6468522   0.5411544  -0.5968103
  -0.5797456  -0.6404067  -0.3912294   0.1070952  -0.1264170   0.1055095
   1.3020024   0.5320541   0.8222621   0.5379696  -0.9794413  -1.5876314
   0.1864864   0.3693599  -0.0195540   0.1372044   0.7260698  -0.0135238
   0.6617753  -0.1843728   0.7975962   0.0671626   0.0220954   0.2196023
  -0.6258520   0.3304134  -0.1236144   0.5882204   0.0483570  -0.9264109
  -0.1039849  -0.3922199   0.0756942   0.8956754   0.6423966  -0.7613201
  -0.3494695   0.1497221  -1.2360217  -0.0939490   0.2262110   0.1508606
   1.0635043  -0.3742566  -1.1132322  -0.0339608  -0.2671612   0.5683698
  -0.0754887  -0.1071539  -0.1407250  -0.8456550   0.3706826  -1.3509093
  -1.1917934   1.7287229  -0.4898511   0.0946989   0.1205682   0.3407198
  -0.6279466   0.7708864   0.7997143  -1.0641612  -0.8617950   0.0249262
  -0.1273499   0.1240336   0.0537865  -0.4104384  -0.7685729   0.4066365
  -0.1119305  -0.1779103  -0.0206955  -0.0498417  -0.3290878   0.0616021
  -2.4306594  -1.7919066   0.2399807  -0.0023787   0.5334041   0.7765234
   0.0524234   0.2107157  -0.1479349  -0.0979865  -0.0047163   0.5887533
  -0.1455813  -0.6450344   0.4424324   0.1837952  -0.0823098  -0.2028733
  -0.9249118  -0.8411488   0.4371108  -0.0979037   0.5307522  -1.6383823
   0.1787242   0.0906756  -0.0550995  -0.5638067   0.1670111   0.3866727
  -0.1232470   1.1356314   1.1231122  -0.0524630  -0.2925789  -0.0032270
  -1.4349363  -0.3832799  -0.1535136  -0.1874515   0.2983766   0.0174509
   0.1785737   0.1388399   0.0944131  -0.6199883   1.1098483  -0.4220636
  -1.3314123   0.2697299  -0.3864002  -0.0426304   0.1889231  -0.0384354
  -0.1086697  -0.4940333   0.1459332   0.7636177   1.7709873   0.1118397
   0.0455853   0.3561172   0.1138942   0.0307826   0.1470069   1.4768968
   1.1126570   0.6776452  -0.6058682   0.0262031  -0.0690162  -0.1663139
   0.2297973   0.1409124   0.6162523   2.0735370  -1.2937174  -1.2296268
   0.0767244   0.1802298   0.2209745   0.5657795   1.1363699  -1.5543141
   0.6282776  -0.6501621   0.4634900   0.0954426   0.1032979  -0.2599590
  -0.0163301  -0.5319680   0.6894876  -0.8163976   0.3206334  -0.1976905
   0.0611305   0.1810354  -0.1145712   1.2732894   0.0574060  -0.0782426
   0.7567388  -0.4016941  -0.3179159   0.0238872  -0.1858355  -0.1762383
   0.3368425  -0.6676872  -1.4230014   0.1634513   0.0512740   0.3129875
   0.0282142  -0.2447029  -0.0693927   2.2187282   0.5924280  -0.3541434
   0.2647028   0.1940431   1.4515970   0.1619612  -0.2894261  -0.2278112
  -0.8315030  -0.8774349  -0.5859448   0.0152044   0.2234373   0.5103188
   0.2242839   0.2064892   0.0078807   0.3126603   0.7713594   0.2229156
   0.1763321   0.3337968   0.2937694  -0.1555541  -0.0326435  -0.0907899
   0.1207760   0.8170850  -0.7361849   0.2364428  -0.0586732  -0.0253928
  -0.1803431  -0.2193400   0.0776056   0.0469547  -0.3500863   0.1294509
   1.6479820  -0.6254330   0.5627728  -0.0305314  -0.2774405   0.0879265
   0.7603772  -0.2844428  -1.3966214  -0.0918163  -0.0865561   1.4665631
  -0.2473775   0.2326992  -0.2243157   1.2748085  -0.7233825  -0.1844090
   0.8096495  -0.7386085  -0.7651954  -0.2205839  -0.0029617  -0.1478655
  -0.0982934  -0.5177119  -0.3801099   0.8848077   0.4759665  -0.1846154
  -0.2483664   0.3813628   0.2078712   0.2809639   0.4285555   0.6978713
  -0.0640841  -0.7419145  -0.2582389  -0.1424527   0.1484829   0.2272330
   0.9192780  -0.2478057  -0.2672880   0.4903658   0.3100742   1.5779106
   0.1113814  -0.3973458   0.0331381   0.9570733   0.6768842  -0.0363324
  -1.4216894  -0.0538304   2.5306559   0.0628955   0.2145264   0.0212515
   0.5904589  -0.5911377  -0.4835240   0.3088433   0.2586120   0.6001413
  -0.1039653  -0.2196566  -0.0907608  -0.9148903  -1.0485671  -0.1315414
  -0.0077388  -0.2056413  -0.1375958   0.0067177  -0.1053640   0.0004277
  -0.4081425   0.7065467   0.7191091  -0.9774690  -0.1400580   0.6920836
   0.0097308  -0.0556143  -0.1789103  -0.2581528   0.9098816  -1.7593304
  -1.1822953   0.1806762   0.9748645   0.0720955  -0.0731317   0.0735941
   0.4860355  -0.6312192   1.1062782  -1.0030687  -0.2834481  -0.1546716
  -0.1730061  -0.0365260   0.1591372   1.0704001   0.9139954   0.8159720
   0.4797038  -0.5969249  -0.6258095  -0.1913077   0.2803483   0.1007456
  -0.6532847   0.5666947  -0.5911227  -0.3442973  -0.0160336   0.1615376
  -0.3028311   0.0455737  -0.0329492  -0.6054435   1.5521549  -0.5142954
  -1.1972867   0.2271722  -1.2497110   0.0379018  -0.2086458   0.3080900
  -1.4300076   0.9195476  -0.1046362   0.4494483   0.9122153   0.9271883
   0.0622742  -0.1905184  -0.1222458   0.2529486   0.9328382  -0.8591492
  -0.3816017   1.0729700  -1.4588725  -0.3083821   0.1942590  -0.0820116
   0.2373596  -0.2946002   0.3502387   1.1071735   1.4143796   1.5200037
  -0.1939589  -0.3404300   0.2931946  -0.7772908   0.2277591  -0.4497300
  -1.5629466   0.3579152  -1.3053534  -0.3004922   0.2345774  -0.0904395
  -0.9093909  -0.7646559  -0.3202792   0.0057851   0.5663225  -0.5245968
   0.1335264  -0.0682652  -0.1229975   0.0607115  -0.1676938   1.6036911
   1.2931494  -0.2097276  -0.1405414   0.0832333  -0.0255158   0.0906863
   0.1354552  -0.1918974   0.4274438  -1.0481783  -0.6293016   0.7091210
   0.2565243  -0.4504278  -0.0831262   0.3621855  -0.6766177   0.9907020
  -0.6613947  -0.1794291   0.8783915  -0.3099590  -0.0255801   0.1003971
  -0.5064109  -0.5311426  -0.0113357   0.9978545   0.4018476  -0.9598225
   0.2667284  -0.0224365  -0.0648658  -1.2419989  -0.6213121   0.6505801
  -0.9060453   0.6155832   0.6778746   0.4176833   0.0234678   0.0945639
  -0.2478253   1.1353378   0.4003382   1.6977631  -0.4977971  -0.2531829
  -0.0166305  -0.1620104   0.1853189   1.0820401  -0.3558716  -0.6184241
   0.8633432   0.3129621   0.3390080   0.1599768   0.1364992  -0.2039519
   1.0283450  -0.6942355   0.2800689  -0.5533299   1.0467037   0.5531209
  -0.2660001   0.0077912  -0.0466078   1.1303156  -0.1955938  -0.6424700
   1.0469883  -0.2884812   0.1983614  -0.3104458   0.1531113  -0.1273562
  -0.1818683   0.0079460  -1.3352261   0.2931615   0.8348621  -0.3147318
  -0.2364843   0.0538619   0.1810560   0.4182611   0.4687260  -0.0507654
   0.6775243  -0.7865243   0.2772651  -0.1539294   0.2370947   0.1848742
  -0.6541680  -0.2972151  -0.6005234   0.9397724   0.4898766  -0.1793655
   0.1960353  -0.1051537  -0.1602111  -0.5732700  -0.1239473  -0.7492960
   0.1721165  -0.3728636  -0.6171657  -0.0335330  -0.1496194   0.0213543
  -0.1715270  -0.2544185  -1.7306608  -1.4212224  -0.2039937   1.2567977
   0.2254355  -0.1670882   0.1756760   0.1435974  -0.8969898   0.9945165
   0.0796927  -0.0955640   1.8126510   0.3164640  -0.2169937  -0.1562933
  -0.5072793   0.3505044   0.0452577   0.6350638   0.1057546  -0.3154623
  -0.0363142  -0.0660426   0.0528768   1.3099703   0.6587580   0.5869741
  -0.5400418  -0.9314905  -0.6240030   0.1851493  -0.1058053   0.2806941
  -0.2798952   1.6354295  -0.5968849   0.0056517   0.7200537   0.1658690
   0.1272356  -0.2439843   0.0571304  -0.9503981   0.2115793   0.0248060
  -0.2437943   0.3503677   1.2305798  -0.2567850  -0.0452457  -0.0114286
   1.2296195   0.6789286  -0.1956564   0.4006665  -0.3349836   0.3883945
   0.2344948   0.3714918  -0.0995363   0.0520435   0.3979357  -1.3445592
  -0.5855777  -1.1101966  -1.5677019  -0.2401982  -0.0421509  -0.3471792
   0.0901186  -0.3508658   1.5572230  -0.2827594   0.2805482   0.6148025
  -0.1234581   0.0994210  -0.4620733   0.0649394   0.1648393  -0.3721409
  -0.2704452   0.2114358   0.7726581   0.2725056   0.4005996  -0.0064800
   1.0285273   0.5685397  -0.6954209  -1.5740726   0.8382534  -0.9799346
   0.2426412   0.1345874   0.0971774  -0.3446405  -0.0219660   0.4478787
   0.7670304  -0.7990119  -0.3051125   0.2784826   0.0813575   0.1461767
  -0.2392300   0.0533103   0.9331433   0.2986195  -0.4637511   0.1908700
   0.1678510   0.1042953  -0.1693095  -0.6738262   0.2988045  -0.4122947
  -0.9476956  -0.0130746   0.4789038  -0.1633928   0.1858071   0.2789403
  -0.7082824   0.8604770  -0.5471946   0.4029698   0.8196754   0.7924655
   0.0028163   0.0393585  -0.0457958   1.0114462   0.1805050  -0.6464143
  -0.3858953   0.5711191   0.0704955  -0.2569429  -0.2509097  -0.1207140
  -0.0425223  -0.5207729   0.0577419  -0.7315817  -1.0502450  -1.2096522
   0.2278794  -0.1623023  -0.2023161   0.2391117  -0.5782703   0.1312917
   1.2589118  -0.9713354  -0.3040915   0.1537419  -0.1642530   0.1350034
  -0.2696976  -0.2795542   0.4087810   0.2226227   0.5751963  -0.1831809
  -0.0406191   0.1038968   0.0893944  -0.4504492   0.5998856  -0.5661849
  -0.5680035   0.0114127   0.8794099  -0.2182804  -0.1641317   0.0346078
   0.5661921  -0.6913686   0.0527866   0.3782977   0.1857693   0.3378569
  -0.0505072   0.2755787   0.2271520  -1.1931394   1.2771407  -0.5907119
  -0.3692814  -0.7795734   0.1474905   0.1355393  -0.2203229   0.1563508
   0.9074120  -0.8109472   1.0953574   1.2790346  -0.2251143  -0.5565568
   0.2965071  -0.0301332   0.1466333  -0.3452683  -0.4321134   0.6956393
  -0.6801057  -0.0859652  -1.3796931   0.0863604  -0.1308982  -0.3367861
   0.4801571   0.3367951   0.6295105  -0.7193142  -1.4131292  -0.5971225
  -0.3171741  -0.2557733   0.1851405  -1.7147891   1.0642804  -0.5957365
   1.0547113  -0.8490155   0.7222554  -0.0675165   0.0225050   0.3522047
  -1.3845588   0.4177198   0.7966480   0.6597175   0.5949266  -0.2715105
   0.4128456  -0.1049606   0.2889792  -1.1191814   0.4228273  -0.6310805
  -0.6909942  -0.6649991   0.0764174   0.1631887   0.0161062   0.3533520
  -0.6891604   0.8138776  -0.4649570  -0.6093777  -2.1788626   0.3931006
   0.2136348  -0.2918256   0.0831304   0.8691529  -0.6439650   0.4922671
  -0.2149168   0.8412191  -0.8168156  -0.0837531   0.0647277  -0.1813127
  -0.5369296   1.2460214  -0.9563620  -0.5050297  -0.1550662   0.0640226
  -0.1477229  -0.1208192  -0.0432485  -0.6402780  -0.0935795  -0.7928899
   0.1489383  -1.5821384  -0.9188823   0.0501713  -0.0102340   0.2503712
  -0.0209483   0.6395196   1.5845576  -0.7847798   0.2807555   0.3687425
  -0.0879394   0.0908517  -0.1230556  -0.0688762  -0.0007512   0.7643549
  -1.0033568   0.6193670  -0.3666236  -0.0790381  -0.3894930  -0.0493290
  -0.0054300   0.3227053   0.2557148   0.1661484  -1.3016813   0.8636283
   0.3335381   0.0047798   0.0053695  -1.2831483  -0.2570455  -0.5652334
   0.2769785   0.5311697   0.1739236   0.0584779  -0.1463922  -0.0527279
   0.7621889   0.9082133   0.1042424   0.1023110  -1.3187702   0.3517421
  -0.1929385   0.1603265  -0.2903975  -0.4808732   0.6544017  -0.4233702
  -0.5702229  -0.6773015  -0.4889245  -0.1413286  -0.2701929  -0.0149194
  -0.1572741  -0.1338779   0.6323767   0.9779720  -0.1938930   0.5577685
   0.3664782  -0.1011548  -0.1354787  -0.5066857  -0.1766827  -2.1064304
  -0.3366863  -0.3308894   0.2394295   0.0489311  -0.1420413   0.4083898
  -0.1054931   1.0307482  -1.2661667  -0.3758058   0.4221869   0.5678305
  -0.1070694   0.3805022   0.0407992  -0.2794220  -0.0073226   1.6778480
   0.1580515   1.4501057  -1.7160354   0.2419620   0.0095098  -0.0551715
  -0.5606656  -0.3093260  -0.7970907  -0.3176493  -0.4201929   0.3906784
   0.1206214  -0.1376918  -0.1296205   0.2917282  -1.0140289   0.8409481
  -0.2366115  -1.0074540  -1.1455412  -0.0527227   0.2546156   0.0238116
  -0.9100222  -0.4989238   0.3580989   0.7691930   1.0295015  -0.1933706
  -0.3015702   0.0912610   0.4171255   1.2155810  -0.3740814  -0.6517655
  -0.0522995  -0.2653361   0.6047959  -0.1313194  -0.2174993   0.3248650
  -1.2375056   1.4617277  -0.3990248   0.0462502   0.3869813  -0.5358743
   0.1540364  -0.2682302  -0.0446908  -0.9579101   0.6600113   0.4216397
  -0.8965477  -0.1003993   0.8668734   0.1637583  -0.0228676  -0.0814472
  -0.5766739  -0.5764623   0.6554702   0.5128248  -0.5211754  -0.7151284
   0.3587780  -0.0632982   0.0947060  -1.3536557   0.6280887   0.4134355
  -0.8366558  -0.6138442   0.7640658  -0.1339675   0.3214602  -0.4937739
   0.1117194   0.5574845   0.7257497  -1.4874085   1.8295525  -1.6853673
  -0.0722406   0.0442497   0.0483400  -0.4738175  -1.0452661   0.0719867
  -0.9027119  -0.4122434  -0.4266773   0.1088016  -0.2984090   0.0453202
   0.1039307  -0.8308662  -1.3550400   0.7205987   0.5034709  -0.3221888
  -0.0315438  -0.2933114   0.1316120  -0.1717020  -0.6841477   0.2758564
  -0.4405735   0.2806144  -0.0293794  -0.2142117   0.1481595  -0.2503897
   0.8439675  -0.2502009  -1.0113358  -0.1933422  -0.5229601  -0.1998373
  -0.3561522   0.0947655   0.0754544   0.0153555   0.5298731   1.5083420
   0.3817819  -1.4430698   0.8551175  -0.2660766   0.0405163  -0.0365496
  -0.3507322   1.1862682  -0.3311257   0.3574091  -0.7665928   0.4354850
  -0.1228014  -0.2241598   0.0976583  -0.7558502  -0.9391854  -1.0306833
  -0.1383753   0.1192267   0.6514893   0.0566772  -0.0357475   0.2086142
  -0.2807088   0.6950656  -0.8926218   0.1722149  -0.0759234   0.2808425
  -0.0560175   0.0073764   0.0694544   0.5419815  -0.0655324   0.6395168
   0.6758807  -0.0380785   0.4353648  -0.0742940   0.0264099   0.0894296
   0.4624618   0.0256977  -0.5680926  -0.5644335   0.4716474   1.6613926
   0.0297795  -0.1761740  -0.1113896  -0.4444185  -0.1931153  -0.8142290
   0.1661106  -0.2331076   0.3732233  -0.2335918   0.0239217  -0.4829565
  -0.2944928  -0.4543868   0.5637861  -0.6077406  -1.1039339   0.7050230
  -0.0036866   0.2090085  -0.1733182  -1.0329588  -0.5023266  -0.4643396
   1.1729546   0.2943684   2.0552108   0.0884785  -0.0554681   0.2985934
  -0.2156182   0.6130484  -1.0703757   0.0889449  -0.1907452  -0.9136590
  -0.0683657  -0.1934909   0.5032929   0.1189179  -0.7345463  -0.4565021
   0.7179366   0.2068798   0.3765386  -0.2206726  -0.0688805   0.2871196
  -0.2142871   0.4836821   0.1899514  -0.3740643  -0.2085140   1.0629192
  -0.0769149  -0.0872375   0.1073981  -1.0194108   0.1479735   0.2927973
   0.4103601   0.7171654   0.2791309  -0.0098921  -0.0253681   0.1762406
  -0.6407979   1.2398982  -0.6591940   0.4016364   0.8951533  -1.0144522
  -0.1218748   0.2340496   0.0485466   0.4384242  -1.0682913  -0.0609555
   0.5363883   1.4345332   0.1363189   0.3950527   0.1463544  -0.2641273
  -0.1697520  -0.8487054  -0.9225295   0.1515823  -0.8674096   0.2121249
   0.0071558  -0.0629761   0.2682624  -0.9002230   0.1602439  -0.2194018
  -0.3667806  -0.4579222  -1.8230881  -0.1846956  -0.3836694  -0.1047431
   0.1181947  -1.3470563  -1.1223000  -0.9738843  -0.1283183   0.0559016
  -0.1456310  -0.2148453   0.2352500   0.1535762   0.2718916  -0.2240517
   0.2132383   0.3873433  -0.1274989   0.0726496   0.1633231   0.2714352
  -1.2683135   0.1681863   0.5183964   0.3612877  -0.9383614   0.1337869
  -0.1076391   0.4101948   0.0697558   0.9212958   0.1303700  -0.5275875
   0.7179612   0.2953478  -1.0913858   0.2458796   0.0000770  -0.0884631
  -0.2494450  -0.6228866   0.1984651  -1.1564150  -0.1147019   0.1983068
  -0.2116365   0.2102794  -0.0609261   0.7080588  -0.4498275   0.1540342
   0.1548707  -0.5198771   0.9944969  -0.0428147   0.2565224   0.3168426
   0.5495077   0.1080604  -0.9442866  -0.7543490   2.0447297   0.1185133
   0.0416739   0.0056876  -0.1226123  -0.7197964  -0.3177387  -0.1883504
  -0.5649669  -0.3475115   0.0312859   0.0824667  -0.2500129   0.1973481
   0.1613727   0.7657607   1.0819685   0.7480171  -1.0659026  -0.7322923
   0.0511926   0.0300886  -0.2688165   1.3761948  -0.4054875  -0.4523029
  -0.0797023  -1.3964479   0.1909574   0.0878964  -0.1357095  -0.2848875
  -0.3776714  -0.5630742  -1.3838963   0.1519294   0.8061723   0.1726362
  -0.0676197  -0.0965239  -0.4409161  -0.0438871  -0.4601212   0.5012582
  -0.3233090   0.5265548  -0.5469809  -0.3472170  -0.1566420  -0.0567278
  -0.4133911   0.2905158  -0.3051752  -0.3217720   0.8004808  -0.4440696
   0.0046389   0.2076197  -0.0249490  -0.3618595   1.2424710  -1.4780792
   0.6352765  -0.1281279   0.7185060   0.0135291   0.3410784  -0.1046104
   0.2318053   0.2139740   0.3492079  -0.1238262  -0.3911072  -1.1173869
  -0.1515461   0.1753150   0.2979969   0.8122572  -0.6322128  -0.5070372
   1.4905862  -0.2281850  -0.1757928   0.0738949   0.1450020  -0.1005386
   0.9240424  -0.3071781  -0.8630135   0.6333343   0.5060535  -1.0031056
  -0.1806578   0.1799739  -0.1513403  -0.6799747   0.7549433   0.6478404
   0.3538910  -0.6561358  -1.9464275   0.1013869  -0.2959271  -0.0674668
  -0.2169595  -0.4628326  -0.0955318  -0.3135275  -1.3942330  -1.1391265
   0.1883897   0.0389309   0.2793347  -0.7403424  -0.2044156   0.0819891
   0.3891331   0.4110664  -0.2525920  -0.0883601  -0.0825539  -0.1507711
   1.0355732   0.0183471  -0.4345213  -0.0950468   0.2210260   0.7271618
   0.0032716  -0.0924001   0.0213793   0.2393681   0.7914189  -0.5453990
  -0.1195916  -0.8594260   0.3897815   0.0972732  -0.1265223   0.0691561
  -0.6522116   0.3338559  -0.0866415  -1.4479026   0.1426000   1.5995604
   0.2063332  -0.1993464   0.0179156   0.5269390  -0.1651564  -0.5945481
  -0.7566119   0.7062166   0.3132025  -0.1469333   0.2833785  -0.0989587
   0.7486633  -2.4660054  -0.5228958  -0.0825159  -0.5146107  -0.5926202
   0.1109422   0.3358343   0.0876726   0.7137170   0.3670293   0.5084242
   0.7839810  -0.3371995   0.5391464  -0.1818134   0.0159569   0.0330180
  -0.6267566   1.0396355   0.1242727  -0.3770810  -1.6094125  -0.4649695
   0.2206889  -0.1095611   0.0619200   0.9028408   0.0095047  -2.0095965
   1.2107013   0.0565949  -0.1342689  -0.0383545   0.3258654   0.1738807
   1.3345718  -0.0285427  -0.0396656  -0.0716496  -0.5553085   0.2365472
   0.1991446  -0.0912694   0.2148332  -0.7336284  -0.3841767  -0.3535245
  -0.0624726  -0.4740905   0.2460033  -0.4854093  -0.1275931  -0.1408194
  -0.3171222  -0.2432025  -0.8371752   0.3463802   0.1662310  -0.6027699
   0.0189670  -0.0538222   0.5101203   0.5372997   0.2491857  -0.2483325
   0.3591898   0.9232880  -0.5335336   0.0945311   0.3172717  -0.2563768
   0.1869102  -0.9569134  -0.8364959   0.1971643   1.0591450   0.2023973
  -0.0055818   0.2594720  -0.1769218   0.1849845  -0.5424959   1.3416650
   0.1673728   0.1778964  -0.2465729  -0.1619303  -0.1914494   0.2567983
  -0.0410760  -0.5082299  -0.2966522  -0.7494365  -1.3258497   0.8658704
   0.2850966  -0.0059783   0.0243617   0.1381714   1.1394575   0.0397123
  -0.3732222  -0.0684991   0.0044192   0.0857609  -0.0519799  -0.1918909
  -0.8083303   0.7118038  -1.1273835   0.9279014   2.1778368  -1.2068049
  -0.1751860  -0.1583776  -0.2562055   0.2584196   2.3796336  -0.5396469
   0.3531222  -0.2635627  -0.1883849   0.2300850  -0.1730478   0.2740013
  -0.5498559  -0.2627654   1.0024562   0.0809784   0.7217308  -0.2451361
  -0.5117929   0.1960551  -0.1042827   0.6192047  -0.6776903  -0.6601237
   0.6310509  -0.0616615  -0.9699175   0.0361927  -0.1679768  -0.4832216
  -0.4901069   0.3655058  -0.5782507   1.3101586   0.0709773   0.9960727
  -0.0330360   0.3569935  -0.1819396  -1.7555664   0.8426068   0.8378338
   0.6264966  -1.0571068   1.8759686   0.2990206  -0.1694084   0.0920831
  -0.5711372  -0.1659384   1.6773175   0.1699902  -0.3517147   0.1508045
   0.1499578   0.0577661   0.4313366  -1.0540908  -0.5505824  -1.7272259
   0.7797216   1.0449960  -0.6263787  -0.2699177  -0.0784773   0.1083323
  -0.2040459   0.2556199   0.1811830   0.5008628   0.3021483  -1.0147649
  -0.1462816   0.0391676  -0.2174357   0.9373919  -0.0704718  -0.6020942
   0.4902853   0.9078126  -0.0954415   0.1924135   0.3326344   0.1148888
  -0.9668203  -0.7683735  -0.3619958  -0.6311023   0.7196106  -0.7356562
   0.2441120  -0.2396924   0.0529007  -0.0587025   0.9882221   0.0491096
  -0.5389629   1.5814320  -0.8973214   0.1391958   0.0971454  -0.3918170
  -0.9119171   1.7858276   0.6018396   0.0846176   0.0743318  -0.3935501
  -0.2538423  -0.1206254  -0.1167229  -0.3421001   1.2695460   0.3054986
  -0.8419673   0.9568207  -1.9720347  -0.2038185   0.0423681   0.3033650
   0.9896719  -0.9771653  -0.2417279  -0.2267454  -0.5215773   0.1580670
   0.0563796   0.2937093   0.2954317   0.8847217  -0.7195352  -0.7676955
  -0.9287157  -0.1921963   0.2614355  -0.0085406   0.0720667   0.0305377
   0.4635737  -0.4218554   0.4129461  -0.8394989  -0.4278295  -1.3328629
   0.1252097   0.2468293  -0.2387144   1.0363621   0.1360859   0.6062180
   0.4451879  -0.5534673   0.8224921   0.0421498   0.1619027   0.0176943
   0.3444486  -0.1279270  -0.6737472  -0.4471155   0.9568836  -0.5064856
  -0.1666209  -0.0045928  -0.1160848   0.1171714   0.3770910   1.6414156
   0.5447049  -0.7530355  -0.7680293   0.1244819   0.0818222  -0.0569579
   0.9228069  -1.1885966   0.3056292   0.5904495  -0.6344811   0.3433420
  -0.2429461  -0.2126993   0.2773396   0.1616908  -0.2183246   0.1956728
   0.9789014  -1.0363643   1.2064465  -0.0984356  -0.0915583  -0.1714119
   0.4095289   0.6788621  -0.2403799  -0.2963484  -0.2873543  -1.0540200
   0.0754622  -0.3105475  -0.2776789  -1.9243010   0.5407820   1.3782245
  -0.8007864   0.3225737  -0.7463185   0.0528129   0.2166089   0.0521282
   0.0521225   0.4501851   1.3752545  -0.4053457   0.4315256  -0.6814093
  -0.1671123   0.2641974   0.1207890  -1.3269195  -0.4937076   0.4866165
  -0.2314781  -1.6480832  -0.6403880  -0.0586667  -0.2661865  -0.0493681
   0.8021034  -0.6104044   0.1694725   0.0019623  -1.4935334   1.8734211
  -0.1805295  -0.0161589  -0.0305185   0.3595885  -0.8401155  -0.0764026
  -1.0543404   1.5208829   0.9372633   0.4412080  -0.2217876  -0.0680188
   0.4595725  -0.6201072   0.8900746   0.5212020  -0.1156738  -2.3025446
   0.1501281  -0.0403810  -0.2099111  -0.7004042  -0.4770377   0.6677720
  -1.1147343   1.6081943  -0.2442733   0.2485839   0.0398176   0.0946418
   0.1724686  -0.1821850   0.1900859  -1.2038725  -1.3813986   0.0892544
   0.0043668  -0.1685990   0.3555328  -0.9571582  -0.6749123  -0.6180393
  -0.3502486  -0.3778240  -0.5934142   0.0063685   0.2515229  -0.0442800
   1.7263033   0.4595687  -0.4691623   0.0462692   1.2766874   0.1461448
   0.1276148   0.1877008  -0.0636654   0.2223408  -0.0021434  -1.0055036
   0.7075299  -0.9267869  -0.1304389   0.0397517  -0.2433576  -0.2200689
   1.8702127   0.1375034   1.1392231  -1.7361708   0.1930552   0.3878889
  -0.3875474   0.0430953  -0.0940038  -0.1366090  -1.1604986   0.1839782
   0.2528005  -0.0892115  -1.0319973  -0.4320949   0.1185349  -0.2378958
  -0.0105467  -0.3779439   0.5592856   0.9394376   0.6202785   0.5496068
  -0.0174059  -0.0756615   0.2413995   0.6474220   0.6224198   1.1521179
  -0.4275454  -0.3444277  -0.8152914  -0.0519625   0.2326243   0.2064644
   0.2638972   0.4454006   0.1452556  -1.3689995   0.5680495   0.4459694
   0.0948002  -0.1060190   0.0288427  -0.3627402  -0.7437894   0.8134064
   0.5262418   0.8567722  -0.1524205  -0.0105391   0.0943816   0.2528524
  -0.2969090  -0.4138056   0.9237465  -1.1442122   0.0367014   0.3717275
  -0.2328960  -0.0493039  -0.2967662   1.4914553  -0.2947859   0.4807087
  -0.3243783  -0.5629943   0.9549897  -0.0328362   0.1908701  -0.1851519
  -1.7684507   1.8446284   0.3365405   0.7721458  -0.2414421   0.3669627
  -0.0189677   0.0577351  -0.2219669   0.3205803   0.1270558  -0.1330086
  -0.4257855   0.1601636  -0.2777228  -0.1977680  -0.1409672  -0.3549054
   1.2242646   0.2904842   1.4977330  -0.1046775   1.3269523  -0.2573669
  -0.1842014  -0.0903595  -0.0682907   0.2164538   0.3209455  -0.5349306
  -0.7711507  -0.8108174  -0.1016213   0.0811114  -0.0712545   0.4224104
   1.3269229   1.0112971   0.2658611   0.7136561   0.5689546   0.3764392
  -0.3053163  -0.1570523  -0.1766752   0.7493636  -0.1193546  -0.0513532
   0.3329228   0.7391897   0.0182129  -0.1816711   0.2298197  -0.2787080
  -0.7086824   0.4154627  -0.3027440  -0.1679166  -0.4863723   0.6820426
   0.0249760   0.2879175   0.0773957   0.0988952  -0.1354277   0.8584378
  -1.1381908   0.3540991   0.1772083  -0.1248907  -0.0067867  -0.0737669
   0.3086451  -0.7303148  -0.3170375  -0.2808187   0.2687697   0.2956638
  -0.0758578   0.3532828  -0.2714941  -0.6535851   1.5402657   0.9434699
  -0.4933427  -0.5952141  -1.5146882  -0.2168782   0.0330514   0.0237989
   0.3637495  -0.5041652  -0.0862570   1.1556487   0.7647103  -0.4237728
  -0.1510680  -0.0413863  -0.0800189  -1.1936428   0.0241411   0.7583728
   0.6096717  -0.2607186   0.8944028  -0.1743701  -0.0405004   0.2857592
  -0.6143462   0.3271832   1.0911381   0.2425163  -0.1063542  -1.1785774
   0.2004091  -0.0094786  -0.0746998   0.4085615   0.1639669  -1.5641454
   0.7923277   0.2670892   1.2160654   0.1014024   0.1330793  -0.0930453
  -1.4150694  -0.6477908   1.3160448   0.5151217   0.0508960  -0.3987370
   0.1683028  -0.2525023  -0.0023363  -0.0737334  -0.3398268  -0.7672646
  -0.9318579  -0.5775148  -0.2756216   0.0763906   0.1491802   0.3088706
  -1.4270386  -0.1600741  -0.8102220  -0.2730265  -0.6281724  -0.0657501
   0.0492965  -0.2072931  -0.0266053   0.8752393  -0.2774596   0.7386938
   1.5338151   0.3410279  -1.1836355  -0.2867399   0.1632645  -0.2244705
  -0.3370256  -1.4910104  -1.0420765   0.4548795   0.0605290  -0.7900040
  -0.1038315  -0.0399240  -0.4226906  -0.0768312   0.8075900   0.4122925
  -0.7115710   0.4200265   1.0213816   0.1930775   0.0219206   0.1010828
  -0.7864160   0.7042205   1.3979630   0.3971184  -0.0310468   1.4562364
   0.0156739  -0.1269744   0.0987621   0.2721946   0.7115707   0.2049698
  -0.2127207  -1.6532248   0.4509920   0.4061249  -0.1099376   0.2561958
  -0.2916441   0.4986512  -0.8456721   1.3288551  -0.0563011   0.0635785
  -0.0085735  -0.0542669   0.0734253  -0.1845038  -0.9659655   0.7784055
  -1.1024843  -1.2957113  -0.1033135  -0.0923673   0.2833479   0.0948088
  -0.4389694   0.5998135  -0.0323488   0.3134098  -0.3347528   0.5692408
   0.0705583   0.0317160  -0.4159177  -0.1087239  -0.4609778  -1.0814212
  -0.8215168  -0.1326867   0.0472469  -0.2522542   0.3099100  -0.4154258
  -1.0721272  -1.4038246   0.5118587  -0.8007938  -0.6193095  -1.3706105
  -0.2735152   0.2792640  -0.0433883  -1.2033243  -0.0283406   0.3444792
  -0.4958493  -0.0778195   1.0330556   0.1355135   0.0147477   0.3677188
   0.6543755   0.4595716  -0.8043494  -0.7827648  -1.1802590  -0.3730536
   0.0716382  -0.2466798   0.3526034   1.3506233   0.0003726   0.0132851
  -0.7342563   0.0171252   0.2932291   0.1426986  -0.2501284  -0.0272344
  -1.7807153   0.0500621  -1.4515916  -0.2018082   0.0204630  -0.0825404
   0.2770360   0.2214676  -0.1553463  -1.3670421  -0.1584861   0.5991883
  -0.3285825   1.3928126   0.8205507  -0.0160475   0.2068344  -0.1487004
   0.6551807   0.4215636   0.9311647  -1.1394665   0.1738869  -0.9826191
   0.2469646   0.0851847   0.1339730  -1.5186592   0.8304368  -0.1933623
  -1.0437073   0.0605629  -1.1074452   0.0431729  -0.0573467  -0.1340982
  -0.1778564   1.3191375  -1.7868679  -0.9162239  -0.3439876   1.3331563
   0.0921831  -0.0773454  -0.1659046   0.6307191   0.2245420   1.7710574
   1.2011902  -0.1264489  -0.4800521   0.1393330  -0.1886888   0.3947432
  -0.0518472   1.0931715   1.0020304  -0.9692804  -1.3161545  -0.3268272
  -0.0635693   0.3203485  -0.0159339  -0.4335053  -0.3591347  -0.4962035
   0.6904277   0.1594479  -0.6661032   0.0623246  -0.1210334  -0.1184892
   1.3679217   0.4089120   0.3333593   0.0421155   1.1263790   1.1657453
  -0.1507057  -0.4729494   0.3446727   1.1075048  -0.7985374  -0.0565486
   0.7759922   0.5010379  -0.5004256   0.2572827  -0.0196929   0.0114727
  -0.2218211  -0.4680216  -0.2423754   0.5966441  -0.0921008   0.6240602
  -0.3895732   0.2325073  -0.1579303   0.7815081  -0.3061815  -0.6985087
  -1.7560563  -0.8210401   0.2396703  -0.4142956  -0.4728211   0.0184893
  -0.6115819  -0.7000036  -0.4267402  -0.3842411  -0.0951537   1.4626841
   0.0830528  -0.1517908   0.1577295  -0.2696185   0.7041565   0.7783786
  -1.1154584  -0.3188479  -0.1587697  -0.3212579   0.1910968   0.2088883
   0.9546945   1.0806705  -0.9125949   2.2239410   0.3775928  -1.1955686
   0.3340046   0.1261586   0.1161309   0.0471773   0.9218806   1.3920370
   0.9371157  -0.4283052  -0.7152764   0.2847879  -0.2163344   0.1744175
   0.0847756  -0.3615628  -1.0263122  -0.6721793   0.8042657   1.4904479
  -0.3217751   0.3101649  -0.0205286  -0.3139509  -1.9225518   0.9126171
   0.8199137  -0.5180015   0.2187185   0.2374875  -0.1128939  -0.0739347
  -0.9057966  -1.8374190  -0.7136142   0.1543437   0.6858311   0.5070378
   0.1656059   0.0482135  -0.0087943  -0.7568960  -0.3948566  -0.6022307
  -0.8063733  -0.3821048  -0.5320890   0.8718723   0.0478783   0.0296218
  -0.4477841   0.9304470  -1.3037334  -0.2427210   0.1310175   0.8379790
   0.1593752   0.2199242   0.0480585   0.3205078   0.7197354  -0.0280131
   1.2860453   0.5341641  -0.1053715  -0.0578255  -0.1074562   0.0075556
   0.8570012   0.4469747  -0.5106852   0.6696416  -1.1464049  -0.8791427
  -0.1673006  -0.1675260   0.1287458  -0.0112053   0.4380827   0.0739216
  -0.0848038  -1.0434049  -0.4745624  -0.0594825  -0.0052166  -0.4264266
   0.4473630   0.6079741  -0.3425539  -1.4383676  -0.0643390   0.8306640
   0.0560660   0.0049595   0.2858507  -0.4761643  -1.3067140   0.2512494
   0.2796941   0.0448320   0.3327776   0.0425898  -0.0796971  -0.2709008
   0.5805729  -0.6916521   0.3627496   0.7081424  -0.4005548  -0.9005135
  -0.0662850  -0.1447110   0.1393088   0.5312548  -0.6348974  -1.4976090
   0.9788116  -2.6878061   0.5979997   0.2841088   0.1228284  -0.2923673
  -0.6183067  -0.1819946   1.1628915  -0.6724103   0.3991251  -0.3667283
  -0.0263981   0.2823166  -0.0570257  -0.0162426   0.1213530  -0.0507649
   0.3472500  -0.8784535  -0.1595647  -0.0593450   0.1218878   0.2079401
  -0.3651898   0.2903035   0.3630219   1.4955457   0.0561818  -0.7416767
  -0.0190643   0.1809542   0.0530426   0.1849986   0.5712949   0.7658967
   0.4430932   0.1589668   0.2273926   0.0636732  -0.3005364   0.0681225
  -0.7530176   0.9654933  -0.0155015   0.8942175  -0.9877186   0.2566705
  -0.5295329   0.3179584   0.0952282   1.0607238  -0.3240633   0.7142316
   0.3636699   1.0916598   1.0151506  -0.4061538  -0.3000063  -0.2188348
  -0.5226023   0.0435167  -1.1521361   0.0859558   1.1688309  -0.5890990
  -0.0320878  -0.0181787   0.2796894   0.9168414   0.4776738   0.4871059
   0.2951052   0.4302702   0.2120654   0.2154490   0.2389478   0.2432033
   0.1419273   0.2965255   1.0134250  -0.7758211  -1.0066132  -0.4623814
   0.4319579   0.1443716  -0.0078514  -1.7233345   0.4973108  -0.7903495
  -0.6353534  -2.1342964   0.0919657  -0.0037310   0.1999217   0.2203583
   0.2087468  -0.0745292  -0.5863719  -1.1341018   0.4320941  -0.0169493
  -0.1126692   0.3185315  -0.1095697  -0.3153717   0.0688520  -0.8633107
  -0.5481371   0.5444925   1.1107241   0.0229068  -0.0477992  -0.0829582
  -0.3061060  -1.2685003   0.6002235  -0.1195896  -0.0923465   0.0905196
  -0.1494388  -0.1240868  -0.1186569   0.4751676  -0.3925179  -0.5425516
  -0.4821597  -1.0812671  -1.0665399  -0.1123372   0.1969683   0.1116250
  -1.2277931   0.5120191  -1.3607700  -0.0516834   1.1633560   0.6718523
  -0.0589504  -0.1335036   0.0756877   0.4217234   0.2416497   0.0247041
  -0.3423598  -0.1246331  -1.4843391   0.0654239   0.2232430  -0.2105826
   0.4152583   0.0968760  -1.1698446  -0.3876392   0.5450676  -0.3405490
   0.3277640  -0.4355429   0.0109968  -0.4143090  -0.5973920  -0.3116594
  -0.1311709   0.6377131  -1.5988436  -0.1964283   0.2505497   0.1123043
   0.5972267   0.3503684   1.4829593   0.3234893   1.3169289  -0.9046702
   0.1186594   0.0659765   0.0774779  -0.9258762  -0.1107897  -1.6504919
  -1.7964402  -0.3949709   0.3724088   0.0855766  -0.0326070  -0.4529335
  -0.3835778   0.3760146   0.1259255  -0.3674981   0.8653887  -0.2175710
  -0.2096565   0.0018421  -0.2114715  -1.7862061  -1.9633919   0.2710124
   0.8238024   0.9272055   0.0988415   0.3191564  -0.1402028  -0.0038170
  -0.2370495   0.6617542  -0.2618185  -0.6490472   0.6018185   0.9258580
   0.1241399  -0.0816031  -0.0192779   0.8931481  -1.2133028   0.4671039
   0.3191913  -0.6828672   1.0410557   0.0092774   0.0987501   0.0213724
   0.6145228  -0.6190857  -0.4607221  -2.3865601   0.4612539   1.2453811
   0.0641237  -0.2227292  -0.0858843  -0.7451079   0.6423434  -0.1740972
  -1.9509429   0.2229495  -0.3028609   0.0821403   0.0457814   0.1887810
  -0.3658793   0.8697883  -0.7873466  -0.2368528  -0.0756798  -1.8514100
  -0.1947694  -0.0028121   0.1136916  -0.1119314  -0.6968476   0.9675542
   0.2245772  -0.0651810   1.3996560   0.0399526   0.0128134   0.0427582
   0.0347968   1.8610781  -0.0501507  -0.6066952  -0.0578589   1.1066994
   0.4437911   0.0458552  -0.0070055   0.7870607   0.6464172  -0.3087467
   0.2056911  -0.3409009  -0.1181468   0.2749122   0.2569452  -0.2172953
  -0.5721392   0.0812576  -0.2347777  -1.4627028  -0.6529266   1.2221985
  -0.2559595   0.1138414  -0.3764386  -0.8246533  -0.0810980   0.4093960
  -0.0359452   0.7454211   0.5155802   0.3297927  -0.1821411   0.0243254
   0.8649541   2.2595165   1.3430907   0.0366655  -0.5017038  -0.1666378
  -0.2467682  -0.0047654  -0.0970055  -0.4152247   0.7720108   0.2242694
  -0.6824327   0.7463679  -1.0416072   0.0151952  -0.1795368  -0.2358522
   0.7902840   0.7450595  -1.2468236  -0.0248183  -0.5171687   1.0875856
   0.1183886  -0.2285733   0.0852553  -0.4835358   0.0280276  -0.4109834
  -0.2213859  -0.6199404   0.8911490  -0.0730199  -0.1916794   0.0376651
   0.7998515  -0.9723395   1.3610633  -0.7710181  -0.9286796   0.1744207
  -0.1186110  -0.1682218  -0.2269660  -0.2206935  -0.9945524  -0.6495043
   0.3348584   0.7890848   0.7623600   0.0385698  -0.2044607   0.1462817
   0.2214044  -0.7656842   0.5286623   0.7434381   0.5033974  -0.6840491
  -0.3642361  -0.4594715  -0.2422377  -0.7186240   1.2410362  -0.8807691
  -0.2952072   0.8563937  -0.3389097   0.3175650  -0.3679275  -0.1106563
   0.7296710  -1.0131822   0.4510920  -2.1136653   0.4505105  -0.1413438
   0.0418762   0.0694605  -0.0353616  -1.2073392  -0.6253078  -0.1425348
   0.0364642   0.7346115  -0.0702217  -0.1820999  -0.0258392  -0.0724487
  -0.0937241   0.0134191   2.7041750  -0.0514311  -0.8806602   0.2486987
  -0.1957293   0.1133817   0.2879128  -0.0761842   1.3393659  -0.3478221
   0.4659829  -0.5241981  -2.1284555  -0.0544059   0.0509687   0.4473726
  -0.1622394  -0.3752578   0.8052852   0.7821478   0.3818941   0.0542144
   0.0440596  -0.0224231   0.2344807   1.0214842   1.1652224   1.3534494
  -0.3602012   0.2861841  -0.2720791  -0.0499638  -0.0578521   0.0215209
  -1.3360586  -0.0752694  -0.2736165   0.2999855   0.2609833   0.6197098
   0.0057912  -0.0672178  -0.1626867  -1.2305418   1.1187015  -0.4406865
   0.2045328   1.3602864  -0.1159009  -0.0054357  -0.2305072  -0.1741523
   0.1972206   0.9654111   0.2737444  -0.0188041   1.0875690   0.7915018
   0.1015739   0.1366952   0.0601631  -0.0256184   0.8738312  -0.7739516
  -0.6707006  -0.1779565  -0.0276200  -0.2439344  -0.2566976   0.3795433
  -0.5423622   0.0208734   1.0533691  -1.1548522  -0.9217295  -0.8180018
   0.3183641   0.1574209  -0.2279298   0.5567253   0.2983074   0.9327703
  -1.1308293  -1.5172457   0.6883287   0.1434506  -0.2542391  -0.2472334
  -0.9772575   0.8529178  -0.4896395  -0.0507216  -0.2136433  -1.0239235
  -0.0151555  -0.0401849  -0.0224786   1.3423228  -0.1418235  -0.5987937
   1.4549714   0.5550138   0.3057255  -0.0165469   0.3505672   0.0365208
   0.2108678   0.2267898  -0.3407309   0.1297975  -0.8897795  -0.0748939
   0.0967345  -0.3449058   0.2650353   1.1147670  -0.5285871   0.5678050
  -0.0476812  -0.7180569  -0.1670747   0.0785419  -0.0323655  -0.0868703
   0.1868320   0.2995414   0.7946048   0.7182397  -0.2235280   0.0208698
   0.1775690   0.1550758   0.0572579   1.5493407  -1.4918008   1.2041274
  -1.1707832   0.4068784  -0.6540431   0.0867235  -0.0713790  -0.1271697
  -0.6892138  -0.2439701  -0.8538910  -0.1383134  -1.3168034  -1.2789012
   0.2370839  -0.1006643   0.3003558   0.4390948   0.0834049  -1.2251516
  -0.9658165   1.0481860  -0.0977656   0.0738668   0.0611256  -0.0638655
  -0.7627931   0.7105624   0.0104267   0.6854538   0.8030770   0.2187158
   0.2279388  -0.1554501   0.1279599  -0.7606538   1.4703060  -0.1284168
  -0.8579804   0.5632251   0.3707140   0.2619353  -0.0918629  -0.0192897
   0.5013156   3.0922142   0.5024974  -0.6158818  -0.5741067  -0.7119066
   0.1714640   0.2791988  -0.1802713   0.7952051  -1.5110685  -1.1848401
  -0.5338297  -0.1803283   1.2861179   0.2369853   0.1040415   0.0986950
   1.2844450   1.1631802  -0.2696093  -1.6721143  -0.8732963  -0.8346323
   0.0484614   0.2661787  -0.4636613   0.0068518  -0.5372421  -0.3429981
   0.3648538   0.1995966  -0.2444832  -0.2047398  -0.0120654  -0.3151794
  -0.5569144  -0.0914041  -0.3781526   0.2262812   1.0778669  -0.3451190
   0.2438338  -0.4239068   0.2730198  -0.1894659  -0.1035223  -0.4254269
  -0.7291923   1.0015773   1.4832999   0.0627402  -0.1179675   0.1584656
   0.6159531  -0.2277754   1.2326263  -0.4684814  -0.8449298   1.5224939
  -0.1587697   0.0368588   0.0381263   1.4448049  -0.7417116   0.7629711
  -0.2550571   0.3820925   1.7488773  -0.0303578  -0.1618677   0.0121201
   0.0629345  -0.7391361  -0.1592582  -0.3083467  -0.7828396  -0.4519288
  -0.1824935  -0.2266108   0.0199523  -0.0210881  -0.4415304   0.3240976
  -0.2478872   0.0696426   1.2682525  -0.0885367   0.1653885  -0.0524164
   1.0786313  -0.3481535   0.4910123  -0.9008491   0.2009957   0.2768128
   0.0099110   0.3416521   0.2313664  -0.0684865   0.6293957   0.7950930
   0.9257754   0.1145791   0.7303146  -0.0392320  -0.2325842   0.1704229
  -0.4206432  -0.0588184  -0.1371513  -0.7345188  -0.7199300   0.8741688
   0.0715512  -0.1097753  -0.0255701  -0.6030735   0.2930414  -1.0270114
   0.9019004   1.4832936   0.2920965  -0.2415557  -0.0236977   0.0420536
  -0.5072180   0.4048459   0.3660503   0.3653089  -1.4997489   0.2166967
  -0.0501221   0.2121746  -0.0294115  -1.6885318  -1.0159343  -0.4374034
  -1.1918458   0.8310655   1.3914798  -0.2521518  -0.3016491   0.1429677
   0.1269183   0.1535846  -0.7577199   0.1565456   0.6785819  -0.4896722
   0.1320708  -0.1404448  -0.3082378   0.0481439  -0.0092158   0.3403321
   0.9086219  -0.7321617  -0.5730901  -0.2351399  -0.0806910   0.0546812
  -0.5226179   0.6480944   0.0136938  -0.1225221   0.4027169   0.3177661
   0.0984808   0.0951015  -0.0844875  -0.8594748  -0.7734309   0.3220214
   0.1839931  -0.3760840  -0.1752847  -0.1245831   0.2297861   0.0648210
  -1.0394847   0.4903574  -0.4272287  -0.3945789  -0.1656069  -0.6385961
  -0.0409683   0.2141937  -0.2249597   0.1082040  -0.0205016   0.2713087
   0.2732328  -1.7512339   0.3796124  -0.1624856  -0.3704279   0.0726634
  -0.1151005  -0.4657747   1.4358206  -0.6757402   0.0834597   0.3115327
   0.1105790  -0.1828002   0.2909035  -0.4807097  -1.1883100   0.0654641
   0.1864007  -0.9442209   1.2225469  -0.1021457   0.3404436   0.2378270
   0.8166935  -2.0045880  -0.2466186   0.0384661   0.6013761   0.5094836
  -0.2068933   0.3449482   0.0479978  -0.8429103  -1.9898526   1.2782537
   1.1063385  -0.5312696  -0.1183907  -0.0668431  -0.4157574  -0.3317860
   0.1158971   0.5505810  -0.6223579  -0.4246560  -1.0773445  -1.2677067
  -0.0370400   0.2828979  -0.1951707   1.0547053   1.6714427  -0.9804264
  -0.8450269  -0.7828957  -0.4364225   0.4168793   0.1524203   0.0142084
   0.1108351  -1.1700672  -0.6439471  -0.6844785   0.3601341  -0.0663319
   0.0995886   0.1688514   0.2466109  -0.4452022   1.5088322   0.1838793
  -0.0675322  -1.5899160   0.6730228   0.1094532  -0.3362597   0.1506617
  -0.8241875  -0.1818108  -0.1792724   0.6172735   1.4015085  -0.3652524
   0.1340093   0.3622127   0.2368744  -0.3496249  -0.8136415   1.1140806
   0.4412562   0.2494016  -0.2175508  -0.0973167   0.0564676   0.1693205
  -1.2712639  -1.0111063  -0.4442625  -0.6690123   0.8991647  -0.8729099
  -0.1296181  -0.0533697   0.0194901  -1.3652011  -0.0384197   0.3971759
   0.5947602   0.2425558  -0.2415690  -0.1968487   0.2559723   0.0215598
  -0.3291811  -0.8824493   1.1813398   1.6089972  -0.4282111   0.8382112
  -0.1204521  -0.2965480  -0.1798798  -0.2927909   0.2144171  -1.2528317
  -1.3774075   0.2297323  -0.2526026  -0.0538675   0.0940436  -0.0710174
  -0.5151751   0.4149538   0.0892223   0.4607815  -0.8915118   0.7886714
  -0.1342811  -0.2664483   0.1337970   1.3128792  -0.9669642  -0.9333676
   0.2681414  -0.2661809   0.1317069   0.0361426   0.0227587   0.0103737
   0.8429106  -1.2870756  -0.4207771   0.0844123  -1.1587737   1.1671494
  -0.0413037  -0.0491450  -0.0594106   0.0234348   1.0080635  -0.1067968
  -0.7844686  -0.2769821  -0.9794095  -0.1967274   0.2474622   0.1086807
  -0.2627301  -1.4874676   0.6684330   1.2419601   0.3686050   1.2756716
   0.0179992   0.1207667  -0.2730987  -0.0554969  -0.2694775  -0.7607873
  -1.0818328  -0.5431722   0.5543691   0.2493930   0.0299264   0.0280624
   0.5355836   0.9803799   0.0447686  -0.6843224  -0.1030522  -0.0559533
  -0.3158129  -0.2561625  -0.2355783  -0.0461390  -0.3705772  -0.1801258
  -0.1952103  -0.4782237  -0.9492490  -0.3759697   0.0751355  -0.1560031
  -0.3692026  -1.2852968   0.4071351  -0.4598004  -0.9860081   1.2170365
   0.0502243  -0.1942197   0.0546236  -0.1921895  -0.8178479   0.3048225
   1.4977868   0.0624053  -0.5891672   0.2193668   0.0315348   0.0466680
  -0.3837119  -0.4053453  -0.2595633   0.8291532  -0.9917673   0.3081790
   0.1168448  -0.3783883   0.3004562   0.5289032  -0.3133520  -1.1031132
  -0.2883140   0.6787059  -0.6984021  -0.1216172   0.0273252   0.0316560
  -1.8998866   1.1073488   0.7327016   1.3270430  -0.5940428  -0.7915430
   0.0354518   0.2673494  -0.2016968  -0.8772002   0.3847406   0.4158230
   0.0017395  -1.5810022   0.1806626  -0.1893594   0.4332350  -0.1129574
  -0.7777509   0.4164611  -0.1722910  -0.0410395  -0.5379771   0.9193736
   0.0708825   0.0281544   0.0927972  -0.5102490   0.0089562   0.2278228
   0.7109311   0.2339250  -0.8836298  -0.1008644   0.0804678   0.0875729
   0.1598216  -0.5948878  -0.1186193  -1.2149256   0.3184518   1.0343986
   0.3634553  -0.2209599  -0.0561429  -0.4408270  -0.4066478  -0.4963640
  -0.5152333  -0.1187208  -1.2874178  -0.3023884  -0.1482111  -0.1264735
   0.0369902  -0.7236855   0.6335023   0.2200467   0.3936040  -0.2524826
   0.0059079  -0.0040458   0.0416863  -0.5301946   1.0051911  -1.4382805
  -0.6246113   0.4959363  -0.5558240  -0.1958048   0.1699949   0.2468125
  -0.5374682  -0.5323671  -0.8790639  -0.3893891   0.1033207  -1.8600410
  -0.0814910   0.0164516  -0.0374536  -0.3590536   0.6326523   0.5629423
  -0.1069300  -0.1595740   1.7822670   0.1670780   0.1041461   0.0392243
   0.1754836   0.1211018   0.9153964  -0.4701982  -0.4362389   0.0976633
  -0.0539078   0.0303123  -0.2629439  -0.3785039  -1.0249592   0.7040093
  -0.4269695   0.6112636  -0.4431712  -0.2487303   0.0132201   0.2048686
  -1.4371644  -1.1545519   0.9927147   0.1623281   0.5399134   0.8682394
   0.3746846   0.2450887  -0.0462531   1.4963347  -0.8011493   0.5110099
   0.3989030  -0.3753934  -0.4119205   0.0477636   0.2281623   0.1452176
   0.2613393   0.0615886   0.9342711   0.0075506  -0.6798702  -0.7373510
   0.4074512  -0.2595467   0.1750155  -0.1586920   0.4224293   1.1001836
   0.2370331  -1.0804857  -0.3198336  -0.2292245  -0.2208212   0.1130144
  -0.4959495  -1.0409806  -1.0583330  -0.1458639   0.3608268  -1.5401773
   0.2641390  -0.0675406  -0.1497951   1.0257072   0.9209631  -0.1949369
   0.6560451  -0.8837073   0.1191534  -0.3218287   0.2357833  -0.2913345
   0.9247862   1.0416832   0.9791816  -0.2355231  -0.0228229  -0.1621768
  -0.1386225   0.1785185  -0.0070378   0.4384847   0.4353277  -0.2060873
  -1.1130001  -0.0558894  -0.9790924  -0.0565358  -0.2062887  -0.2213489
  -0.0304325  -1.3412760   0.0404012   1.5513673   0.6022869   1.3769912
  -0.0339121  -0.0545964  -0.0016113  -0.5327105  -0.6784710  -0.0953486
  -1.2444642  -0.0457979   0.3872026  -0.3861553   0.3306823   0.2881307
  -1.5478949  -0.0844822   0.1485966  -0.6320300   0.1844730  -0.9350462
   0.1958467   0.0416338   0.0968955   0.8618151  -1.1613694  -0.1668833
  -0.8434021   1.2390313  -0.3517491  -0.0583912  -0.1280909  -0.2087199
   0.3718043   0.6061952  -0.0620265   1.3723804   0.8019621   0.3245293
   0.0677846   0.0284337  -0.0442401   0.1367171  -0.0111858  -0.0429855
  -1.3326666   0.0666661  -0.3658019   0.0302844   0.1572948  -0.0355317
   0.0217161  -0.3959211   0.2079706  -0.1014922  -1.4752679   1.6097267
  -0.0170961  -0.0140661  -0.1392398  -0.3395932  -0.6644985   0.4798058
  -0.3143223  -1.0839362  -0.2196598   0.3967534   0.1284840  -0.2232683
   0.8377532   0.6026372   1.0674178  -0.0297974  -0.5636412  -1.0892235
  -0.0206569  -0.0327475   0.2609241   0.8755965   0.0998586  -0.0539235
   0.6516392   0.3437768  -0.2571610  -0.2156589   0.1264877  -0.0385310
  -0.2035206  -0.2572958  -0.1398194   1.3130864   0.8387703   0.5121029
  -0.0332722   0.0046150   0.6019507   0.9115484   0.8556310  -0.1144541
   1.0013455  -0.8557025   0.0824636   0.4545671   0.0360850  -0.0343478
  -1.0942675   0.7933637   1.1455533   0.8268853  -1.8542263  -0.3220304
  -0.2095621   0.1266336  -0.0149829  -1.6464077  -0.6812476   1.1323397
   0.5158302   0.7202738   0.4638824  -0.0452390   0.2762666  -0.1516765
   0.8681714  -1.1217116  -1.1714278  -0.3188321   0.2474899   0.9848875
  -0.2718666  -0.1401713   0.2589909   0.1776562   1.2325698   1.4096268
   0.8475256  -0.4468949  -0.0663365  -0.0502022   0.1623804  -0.0691405
  -1.0566921   0.0676676   0.0360685  -0.0680446   0.3090877  -0.6400939
   0.2337999  -0.3612588   0.0667445  -0.2645500  -0.9140470   1.2928179
   0.7158212   0.0341251   0.3394479  -0.2175995   0.0874036  -0.0439229
   1.5506411   0.7916010   0.8065626   0.0795430  -1.0424091   0.9283716
   0.2009552   0.2966831  -0.1184357  -0.0085111   1.1044124   0.4291418
  -0.3629445  -0.3481392  -0.1948289   0.2996581   0.1626622  -0.2021873
   1.0177129   0.1026238   0.5136499  -0.1643105  -0.3698017  -0.3141866
   0.0554991   0.2776275  -0.0425418  -0.0559950  -1.2992511  -0.6240986
   0.3913439   0.2950581   0.3885279   0.0547643   0.1359172   0.0496768
  -0.2211008   1.7092147   1.1395903   0.3812819  -0.0030804   0.1876070
  -0.1869881   0.2075750   0.0793384   0.3140994  -0.5408056   0.3073341
  -0.4734849   0.6364752   0.1874997  -0.1817445   0.2714586   0.1443993
   0.1231398  -0.6201917   0.5971864   0.3840475  -0.8103164  -0.0861257
  -0.0069689  -0.1144649   0.0061081   1.4577542  -0.8689650   0.0530219
   0.1865908  -0.8489449   0.2628812  -0.0412787  -0.1603377  -0.0484939
  -0.6356434  -1.0984157   0.2033917  -0.4744016   1.1991488  -1.1349813
   0.2720661   0.1337522   0.2661333   1.3203264   0.0332825  -0.7297273
  -1.8920957   0.3650360   0.0717981  -0.1128550  -0.2606896   0.0104954
  -0.7320447   0.2528606  -0.1288109  -0.3390575  -0.8022122   1.6368703
  -0.0312478  -0.1719551  -0.1430912  -0.1381072  -0.9007006  -1.0845663
   0.3606715   0.2724868  -0.9980959  -0.1546006  -0.3442456  -0.1798980
   0.4149128   0.4609620  -1.5773626  -0.0606455   1.2370920  -0.1916075
   0.0840157  -0.0058480   0.2166707  -0.1867206  -0.0329636   1.0536953
   0.1692627   0.3677957  -0.1037104   0.1747304  -0.2009111   0.1474257
  -0.2958121  -1.7937956   1.0817504   0.2367208   0.7405903  -0.5842576
  -0.2133731  -0.2086336   0.0955023   1.0163054  -0.9053108  -0.1840533
   0.2660382  -0.0642542  -0.7058507   0.0476128   0.3941235  -0.1863068
  -1.1622304   0.0744914  -0.5592308   1.0573285  -0.6858847  -0.0919065
  -0.0779447  -0.1614882  -0.0736623  -0.2628605  -0.9928964  -0.5415599
  -0.8773440  -1.4101185  -0.4281501   0.0685500  -0.1712717   0.2945368
  -0.5327841   0.3992635  -0.7088331   1.1133148  -0.1446535  -0.2193476
   0.1496060   0.0107390  -0.2224140  -0.1335227   1.1707752  -0.1001264
   0.0799095  -0.6063075   1.1716256   0.1125882  -0.0334509  -0.2329328
  -0.0941036  -0.0521764  -0.0027818   0.5315521  -0.0051977  -1.3950311
   0.2632174  -0.1353862  -0.0434980   1.0711973  -0.3381381  -1.0376588
   1.3190035   1.1072473   0.0215920   0.1043318   0.2080959   0.0620010
   1.2015756  -1.0637120   0.1038438  -0.0694073   1.2339563   0.5049051
   0.0384881  -0.0351318   0.1462118   1.8839295   0.4304945   0.4631976
   0.8131853  -0.4179344  -0.6586647  -0.3180868  -0.0994586   0.2929738
   0.1152964   0.7092366  -0.6744201   0.0131140   0.1237952   0.5821355
  -0.1536726   0.2583144   0.1245919   1.3474255  -0.1234468  -0.3713742
  -0.3304315  -0.5400767   0.2884396  -0.1102553  -0.2789943   0.2490460
   0.2054616   0.1553758   0.6260073   0.2467677  -1.6586900   0.8509363
   0.2300173   0.4531645  -0.0011822  -1.6388223  -0.4522805   0.4447320
  -0.2016737   1.0451703   0.8005040  -0.4356894   0.0983035   0.1697680
   0.5371664  -0.5327534  -0.3263963   0.4582606   0.6423229   0.0793629
  -0.0781529   0.2679747  -0.2256503   1.2856312   0.7280406   0.7063011
  -0.2185543   0.0816757   0.1900400  -0.1530530  -0.1074490  -0.2718923
  -0.0286566   0.3170683  -0.8666906   0.0933832   0.1265178  -0.2596642
   0.0445279   0.1325730   0.2185268   0.7384093  -1.1098955  -0.6711402
   0.6556695  -0.6371886  -0.2795100   0.2659830  -0.1017593   0.0356901
   0.4646179  -0.4556109   1.1003125   0.8628139  -0.8137824  -0.2442073
   0.3761721  -0.1141169   0.3167546  -0.3922092   0.4841802   0.2559418
  -0.0995194  -0.5281308   1.8740878  -0.1862783  -0.3825499   0.1991788
  -0.3774664  -0.8086743   0.7893585   0.0923987   1.1857946  -0.4026628
  -0.2023057  -0.0915394   0.0089060   1.1258008   0.2575307   1.1003019
   0.9114413  -0.0047951  -1.2966857   0.1357735   0.0747395  -0.1461028
  -0.5239731   0.0863811  -0.1083278   0.4554798   1.8641269  -1.2990319
   0.0417869   0.0269023   0.1853802  -0.0498960  -0.0462309  -0.3039543
   0.6376947  -0.8990909   0.7207502   0.1344834  -0.1963947  -0.0481895
   0.1899389  -0.1574548  -1.1893085   0.4580502   0.3071819  -0.8525063
  -0.1490376  -0.5191420  -0.4844529   0.0530554  -2.1848073  -0.2675404
   0.0121073  -0.9264705   0.3523031   0.2168375  -0.1357207   0.1536422
  -0.1252283   0.7585742  -0.4319206  -0.4499520  -0.2561873   0.0601564
  -0.0694363   0.2047458  -0.1404603   0.8078118  -0.1590154  -0.5233238
  -0.9187665   1.3961854   0.2581424  -0.1369653   0.4364225  -0.0317263
  -0.2039723   0.1848154  -0.3993072   0.2576932   1.8066328  -0.2581166
   0.1550995   0.0470660   0.0030232   1.2416563   1.1590127  -0.4567576
  -0.4387196  -1.2542376  -0.8307421   0.0819378  -0.1235593   0.0438702
   1.2169303  -0.0692471  -0.1379992   0.1754631  -0.0624213  -0.3494027
  -0.5251103   0.1619501   0.0698003  -0.0223419  -1.1239299  -0.5177450
  -0.4375541  -1.0044566   0.5014899   0.1904633   0.0198446  -0.0579153
   0.3819941  -0.0560318   1.1907185  -0.4574738  -0.1393239   0.6634994
  -0.2644433  -0.2895061  -0.2738355  -0.5602935  -0.2777000   0.6466231
   0.7108087  -0.5890709   0.4548597  -0.0588496   0.0583253  -0.0190700
   0.8982968   0.0823944  -0.2366311  -1.6966752   0.6531621   0.2652237
   0.1279498  -0.1462799   0.5902500  -0.7151150   0.6338395  -0.5240714
  -0.4785209  -0.6629943  -0.4991589  -0.2053377  -0.0149612  -0.0387179
  -0.6508860   0.6516512  -0.2875750   0.0840637  -0.4705991  -0.0383648
   0.1210872  -0.1373688  -0.1659903  -1.1039002   0.8888964   0.5685917
  -0.0731434  -0.0264441  -1.6027275  -0.1979356  -0.2835256  -0.2110616
  -0.2033483   1.4482249  -1.6149951   0.6226803  -0.8542122  -0.7367868
   0.1256552  -0.3108730   0.0065136   0.4766677   0.4043411  -0.2306167
   1.4617556   1.0393580   0.6926903  -0.2460396   0.0655492  -0.2020072
  -0.1817314   0.0105998  -0.4340695  -0.5175449   0.3609789   0.6433539
  -0.1075121  -0.1896993   0.1710219  -0.0585308  -0.6445216   1.3482457
   0.6890244  -1.4847537   0.0448007  -0.2633523   0.0702479   0.2470343
  -0.9223212  -1.4793509  -0.5675842  -0.5261235  -0.5895248  -1.1810772
  -0.3527400  -0.0999151   0.1372895   0.0183843  -0.3420880   0.3955789
   0.4564032  -1.5369074  -0.1807137   0.2171415  -0.1075849   0.1516764
  -0.5860810   0.3850746   0.4684470  -0.4438706  -0.4472402  -0.0135887
  -0.0112084   0.0661762  -0.0813951   0.0138755   0.0633970  -0.0580191
  -0.5612102   0.9464216   0.4560115   0.0455043   0.2151044  -0.0515178
   0.1325488   1.1149043  -0.5655793   0.2795886   0.0238935  -0.4558344
   0.0783278  -0.0253900  -0.1733122   0.6388931  -0.5948492   0.9836061
   0.4051562   0.1900381   1.0065352  -0.0101305  -0.1745956   0.2994128
   0.4000842  -0.0094928   1.0342667  -0.6048822   0.0226335   0.7801544
  -0.0805284  -0.1369691  -0.0740461   0.6963240   1.7620737   0.1001348
  -0.1760120  -0.7820650  -1.3488865  -0.0570466   0.4016099   0.5409452
   1.0755615   0.4702630  -1.4825887   0.5423252  -0.2305008   0.9442901
  -0.0243608  -0.1445173   0.2499776  -0.1166940  -0.3858442   0.2836824
   0.1151564   1.0411950  -0.2027449  -0.3504076   0.0227871   0.1856288
   0.3826395   0.2737668  -2.3627213   0.2349054  -1.4089647   0.2097765
  -0.3996404  -0.2680279   0.3264739   0.0365266  -0.2263865   1.8227555
  -0.3687284   0.1470263   0.3227622  -0.0032609  -0.4249662  -0.2384224
  -0.3098177   0.6377475  -1.0568467   1.0817678   0.3870013  -1.1750355
   0.1209362   0.2598623  -0.2834753  -0.4381835  -0.9479493  -1.7714028
   0.2499071   0.2671971   0.3539644   0.2399015   0.2167504  -0.1585768
   1.7025885   0.0549982  -1.1873120   0.2428605  -0.5711531   0.7203402
   0.1009235   0.0055003  -0.3830092   0.3070569  -0.6045408   0.6131834
   0.5025458  -1.6191816  -0.3265456  -0.1758642   0.1402999  -0.3079518
  -1.2955860   0.5199322  -0.9024081  -0.1756200   0.3964950  -0.0158942
   0.1426759   0.1475144   0.0842352  -0.2943883  -1.2910127   0.5566348
  -0.2758205  -0.4749576  -0.3878937   0.2947399  -0.1503068   0.1915311
   0.2427162   0.5427337  -0.8006415   1.3196957   0.8819949  -0.3986550
   0.1347250  -0.0265679   0.1192868  -0.0889070  -0.2320242  -0.6273858
  -0.4062076  -1.3612166  -0.1323693  -0.1201732  -0.1943975   0.4598954
  -0.8315662  -0.0152317  -0.4868476   0.2243999   0.4226319  -1.0296655
  -0.0076882   0.2837175  -0.0181042  -0.0603253  -0.9527394  -0.2504462
  -0.0532141  -0.3537283   0.3655020  -0.2010317  -0.0442876   0.2232380
   0.5445182   0.4479528   0.9266050   0.7991391   0.2517403   1.3786098
   0.2721474  -0.0467742   0.0017707   0.7385308  -0.1023268  -0.1154731
   0.2979267  -0.7776838   1.0204774   0.0953315  -0.1003148   0.0263874
   0.1807189   0.6881163   0.7057144   0.9230776   0.7573073   0.0066661
  -0.0700712   0.0707410  -0.2968177   1.2464582  -1.8946660  -0.1759133
   0.1595014  -1.4861426   0.7111821  -0.1059424   0.4669671  -0.2394827
   0.1064303   0.6203511   1.0235469   0.4932993  -0.1541863  -0.3513720
   0.4022071   0.0018049  -0.1870805   1.2371716   0.8356754  -0.0803369
   1.0873336   1.1968788  -0.8068851   0.0669601  -0.0483231   0.0706030
  -0.2496382   0.9038349  -1.2100795   0.2072341   0.1625094   0.6207543
   0.0558116  -0.0325813   0.4212960   0.6137671   1.1902158   0.6309669
  -0.7792810  -0.3590714   0.0099881  -0.1213469  -0.1748709  -0.1278136
   0.9214963   0.6448325  -0.3157493   0.3656659  -0.7524793   0.5725171
   0.0712147   0.2992929  -0.3368892  -1.1428391   1.5835915  -0.1441386
   0.3151334   0.3032712  -0.0044765   0.0806814  -0.0702663  -0.4677136
  -0.0543703  -0.1897880  -1.3441964   0.4725256   0.7590913  -1.3506490
  -0.0773890  -0.1154050  -0.0850479  -0.1510425  -0.1426951  -0.2154960
  -0.0617487  -1.1944055  -0.7802218  -0.0229864   0.3852046   0.2268387
   0.9728919   0.1273176  -1.0632495   1.4599051  -0.0903499  -0.6820281
   0.1711444   0.0568173   0.4071417  -0.2254488  -0.9940469   0.6905146
  -0.2506024  -1.0272962  -0.4148512   0.0641776   0.1092793  -0.1724574
  -0.1793406  -0.7411003   0.4842426  -1.4119012  -1.2304397  -0.3886302
   0.0660199  -0.0589413   0.0958636  -0.6166372  -0.2615728  -0.6795011
   0.6816347  -1.3662738   1.7962757  -0.0588414   0.1131481   0.0539578
  -0.3721653  -0.2610453  -0.6127214  -0.4298422  -0.2547478  -0.2533497
  -0.4894146  -0.0614206   0.0759569  -0.4481419  -1.2968436  -0.5046828
   0.5710098   0.0234953  -0.4275003  -0.0943171   0.0348711  -0.4323562
  -0.9770675  -0.3788693   0.6575924  -0.2739720  -0.3901962   0.6001011
   0.0522046   0.0252124   0.1930900   0.5990503  -0.3557934  -0.9096134
   2.5222415  -0.1808962   0.1236153   0.0001734   0.1318168   0.1390377
  -1.2362556   0.0395218   0.7373275   0.8783856  -0.7184807   1.3139320
  -0.0113513   0.5025157   0.0242269  -0.2064969  -0.3408279  -0.3961589
  -0.6737443  -1.3137674   1.4409704  -0.0794144  -0.1123358   0.0314832
   0.4791635  -0.3622683   2.3475593  -0.2388972  -0.2819867   0.4066416
   0.0088322  -0.0497696   0.1738210   0.2691225   0.6856951   0.2737113
   0.9793775  -0.5345634  -0.6454911   0.0572212  -0.1007882   0.0091461
   0.8927597  -0.7917227  -0.7017738   0.2822343  -1.5655598  -0.5653841
  -0.1189958   0.1948116   0.0047267   0.0500655  -0.8945763  -0.5855720
  -0.2443571   0.1538619  -0.0552754   0.0463427   0.1694380   0.3127175
  -0.8108756   0.0316181  -0.8208900   1.2269510   2.1203196   0.4353358
  -0.1270832   0.4429909  -0.2913258  -0.0080253   0.1048120  -1.1776879
   0.6101297   0.7074639   1.4878359   0.0658522   0.4749150  -0.2301188
   0.6525170   1.4324532   0.3433540  -0.4480722  -0.8569541  -0.2757468
  -0.1029958   0.2499978  -0.0390831   1.2998219   0.1215496   0.6944164
  -0.3096404  -0.0110863   0.0257843  -0.6198922   0.0219027   0.2351817
   0.1227615  -0.1879959   0.3166713  -0.8982545   0.0578134  -0.6149696
   0.0882458  -0.0021576  -0.1658568   0.0994394   0.6373176  -0.2885051
  -0.3500981   1.0221336   0.7881466  -0.1295224  -0.2013193  -0.2093562
   0.1225181   0.2559080   0.0010084  -0.0147516   0.4344089  -0.2528855
  -0.1700644   0.3019957   0.0709135   0.6449715  -0.3690049  -0.0725071
  -0.0794502  -0.5094957  -0.0313099   0.3174446  -0.1600579  -0.0509595
   1.1631233  -0.4547016   0.2108334  -1.1738697   0.8660020  -0.7050256
  -0.1156882   0.0891959   0.0492880   0.2330675  -1.1226030   1.4656949
   0.1132349  -0.1354256  -0.6817648  -0.0338517  -0.3748961   0.0166851
   0.5782440   0.5789325   1.1727780   0.0075748  -0.1414031   0.5982626
  -0.1708535  -0.1332602  -0.0368907  -0.5025719  -0.0971696  -0.4141814
   0.3978744   0.2726493  -0.6080103  -0.0494387  -0.0791391  -0.0617509
   0.8267533   0.6373629   0.2815989  -0.2022952   0.3507063  -0.3830267
   0.1528957   0.0727516  -0.0678175  -0.1974100   0.1689375  -0.0061910
  -0.4251009   0.6893384  -0.4538186   0.0837257   0.2585185  -0.0102784
  -0.9679340   2.2152082   0.0617844  -0.5872397   1.0354466  -1.3579694
  -0.0802336   0.2121974   0.0269169  -0.4552498  -1.0786736   0.4115976
  -0.5759508   0.0344979   0.5928344   0.0365180  -0.2817264   0.1548555
   0.6074628   0.2779287  -0.5581316   0.2940771  -0.4668414   0.4513777
  -0.0158178  -0.3817358  -0.2407102   0.3457985  -0.3807355  -1.4436334
  -0.2809517  -0.7362658   0.1478360   0.2233349  -0.0724298   0.1854560
  -1.2390979   0.6946785   0.2194192   0.0734170  -0.2790908  -0.1744208
   0.2046579   0.1290835   0.0114037   0.5067131  -0.2115534  -1.5897789
   0.2899515   0.1554874   0.4702874  -0.0857255  -0.0174311  -0.1430028
  -0.5898635  -0.9453091  -0.0523907  -0.0684284   0.2902438  -1.0944834
  -0.3379222   0.1238423  -0.1308379  -1.5008647   0.3591605   0.7752815
  -0.4013753  -0.0371432  -0.0083000   0.3287265  -0.3323201  -0.2565531
  -0.9365617  -0.1706566   0.0779880   0.0456432  -0.0398013  -0.1729898
  -0.1214953  -0.0965140   0.2665516   0.0254562   0.3682973  -0.9171530
   0.3605337  -0.4735673   0.4391358   0.1773231  -0.1220962  -0.0850171
   1.7546781  -0.1817806   0.2663067   0.9196763   0.8810172  -0.1461649
   0.2998453   0.1994076  -0.0923980   0.4019554  -0.3465503   0.8117821
  -0.5954127   0.8029346  -2.6841116  -0.0064877   0.1787363  -0.1912054
   0.0968923   0.1282617  -0.5902949   0.7526096  -0.1149052  -0.2021841
   0.2641620  -0.0444089   0.2289273  -0.7781391   0.5657196   0.1188388
  -1.1880197  -0.2518069   0.1048616   0.0112283  -0.3999003  -0.0424387
  -0.0313070   0.1285144   1.2796479   0.4561311   0.2156691  -0.4491111
   0.0316314  -0.1220546   0.2142258   0.4766214  -0.6766491   0.5154636
   0.6293247  -1.1590966  -0.5136980   0.1159328   0.0068729  -0.2382549
  -0.5122569   0.2527713   0.1395761   1.1556030   0.0076440  -0.3532943
  -0.0339685   0.0620705  -0.0163871   0.7728474   0.1372013  -0.0508963
   0.2249783   0.0795219  -0.2149580   0.2108605  -0.0844445  -0.0900679
   0.7129032   0.3754712   0.1132389  -0.7328233   0.1907651  -0.1611846
   0.1033271  -0.0244371  -0.1374467   0.3358363  -0.3077292  -0.1322995
   0.9628399  -0.1942390   0.1269796  -0.2001182   0.0571688   0.0303475
  -0.3461872  -0.3548004  -0.3663647  -1.2785600   1.0566431  -0.1272925
  -0.4267831  -0.1618651   0.0111758  -0.8432209   1.7984604  -0.2630777
  -0.3265484   0.2929302   0.6925894   0.3884905  -0.1171881   0.3434413
  -0.2520388   0.4688917  -0.6650115  -1.0816474  -1.9303868  -0.2959551
   0.1212809  -0.1428926   0.1528807   0.3065835  -1.3074282  -0.1283377
   0.9413367  -0.0271358   0.7869996   0.1021568   0.2418015  -0.2583163
   1.3712767  -0.6409975   0.2439450  -0.9500947  -0.3511408   0.7866905
  -0.0697922  -0.1904773   0.3602412  -1.5298110   0.0987942  -0.9610093
  -0.5822223   1.1470701   0.6100025   0.0432201  -0.1399193   0.1895229
   0.4379554   0.2026635  -1.4104681   0.1696505   0.6798502   0.3784867
  -0.2446600   0.0535090  -0.2328701  -0.4390692   0.4092905   0.3513760
   0.3437789  -0.1516861   0.4172385  -0.2168636  -0.1331838  -0.0823592
  -1.0874043  -0.1265239  -0.5069988   0.1331955   1.0345834   0.6836846
  -0.3406683   0.1230701   0.2017607   0.5752351  -0.4526778   0.1542394
   0.0935426  -0.3409856   1.0690904  -0.1726952   0.0805814  -0.0845129
  -0.3905413   0.6289785   0.8192421  -1.3919625  -2.0112783  -0.0650094
  -0.0182260   0.1793149   0.3290711   0.8498095   0.0252189   1.0190560
  -0.8032471   0.0632816  -0.2352671  -0.0380837   0.1621684  -0.0748558
   0.0651661   0.5426391  -0.2315668  -0.1481740  -1.1671783   0.2304169
   0.2497804  -0.0416938  -0.0488261   0.3213341   0.1039062   0.6404834
  -0.8991065  -1.0250873   1.6042647   0.0312118  -0.1047980  -0.4272961
   0.4775171  -0.4695377   0.1095142  -0.1663219   1.0547684  -0.6394885
  -0.0124239  -0.0183806   0.0063810  -0.9025767  -0.6079832   0.5091061
  -0.1579269   0.3284183   0.3879086   0.1383558   0.1431698   0.1280015
   0.5596856   1.9422491  -0.2125966   0.4041404  -0.5277560  -0.7953792
   0.4387593  -0.0073306  -0.2866260  -1.5862886   0.2886465   0.3552779
   0.6174476   0.3074980   0.7511417  -0.2587729  -0.0400911  -0.4172273
   0.1140817  -0.9169424   0.9184119   1.1076334   0.6747445   0.5032072
   0.0868087  -0.1075736   0.2043712   0.4797975   0.5153596  -1.1591450
  -0.0996736   1.1238801  -0.7692433  -0.0455092  -0.1142158  -0.2096074
  -0.1374897  -0.3621173   0.2729931   0.9303940   0.3108432  -1.2739893
  -0.1078722   0.2471258   0.0524827  -1.0115433   0.3303446  -0.1567946
   0.1315156   1.3880651  -0.7395337  -0.0142875   0.2038125   0.2009684
   0.7731775  -1.0589935   0.0966212  -0.6092729  -0.5181405  -1.9202801
   0.2337291   0.3523042   0.1850380   0.6688436   0.9790538   1.6971358
   0.4410328   0.4724152  -0.3584721   0.2248919  -0.2984384  -0.0067639
   0.0750134   0.3164887  -0.4393753  -0.9749601  -0.2868870  -0.5336858
   0.1763392  -0.1985913  -0.0791659  -0.2714114  -0.7340064  -0.0668954
  -0.3809134   0.6041230   0.7578797   0.2893066  -0.2831499  -0.0139268
   0.1774781  -0.3538762   0.5817403   0.2028977  -0.2559041   0.0419513
  -0.0770366   0.1704299  -0.2566271   0.4486393  -0.2498045  -0.6570155
   0.0283692  -0.5510989   0.5069783  -0.2801477  -0.1470036   0.1248727
  -0.2440279  -0.8224077   0.0170453  -0.6464543   0.0171607   0.0869275
  -0.0053517  -0.3319435   0.1345067   0.6572785   0.8741194  -0.0945837
  -0.2324423   0.0354833   0.1741483  -0.1816085  -0.0562897   0.1908318
   0.0052757   0.3706498   0.1029166   0.0615284   0.3059317   1.5191425
  -0.0669299  -0.1485134  -0.2049086   0.6669449  -0.6552533   1.4652018
  -0.6017679  -0.0815605  -1.4327883   0.3660980   0.0004572  -0.1431590
  -0.0860643  -1.9405552  -0.8333625  -0.7467216   0.4735408  -0.0718276
  -0.0897949   0.0669599  -0.2796913  -0.2987816  -0.6821691  -1.4237990
   0.0858371   0.8760899   1.1474934   0.5443503  -0.3545329  -0.0875896
  -0.1649368  -0.7445820  -0.1074227   2.2406758   0.9948865   0.1922670
  -0.1586454   0.0407947   0.0762050  -1.0369442  -0.9628482   0.8084613
  -0.9140046   0.6605060   0.3907259   0.1585471   0.0631903  -0.1295516
  -0.2538140   1.8811266  -0.4644164  -0.4836461  -0.2242006  -0.0074522
   0.0025565  -0.0882644   0.0533083   0.4392112   0.1125805   0.9615005
   0.7062980  -0.6740249   1.0358668  -0.1332628  -0.1870472  -0.3485174
   0.0719175   0.9718854  -0.8712774   1.2804188  -1.0876378   0.0659820
   0.2752080   0.0929782   0.0902802  -0.7585611  -2.7348401   0.8469729
   0.0565689  -0.9131711  -0.3628451   0.0711292  -0.1160758  -0.0672308
   0.0827781   0.0848447  -0.2228832  -0.2617962  -0.0449262   0.5058333
  -0.0908020   0.3771965   0.1643589  -1.6952608   0.4471227   0.1408522
   1.3355772   0.2357905   0.2544887  -0.0157485  -0.3326607   0.2616815
   1.4877646   0.2171117   0.0559061  -1.4478170   0.2118196  -0.1183792
  -0.0894680   0.0523797  -0.0588687  -0.2971761  -0.2931678   0.7018676
   0.3124960  -0.2454723   0.1391306   0.1248394  -0.2441183  -0.0647077
  -0.8375338  -0.7760439   0.2433341  -1.4334453  -0.6438821  -1.0217316
   0.3724887  -0.0989035   0.1874265  -0.1378723  -0.1168664   0.8613454
   0.7964831   0.5499172   1.8990115   0.1394598  -0.0779551  -0.2696219
   0.7273624  -2.1379416  -0.9093705  -1.4675408  -0.2599469  -0.3072120
   0.2204123   0.1956041   0.2727809  -0.5209194  -0.2362354  -0.2909894
  -0.6713299   0.7524144   0.3251418  -0.2058832   0.0688028  -0.0926913
   0.2515989   0.2485579   0.1932942  -0.6836311  -0.3901357   1.3758387
  -0.1655349  -0.0353413  -0.0612565   0.2567090  -0.4400993  -0.9418069
   0.4516699  -0.2557957  -0.7184131   0.0307346   0.1961148   0.2748091
   0.6297914  -0.0760786   0.4482053   0.9974662  -1.0188774  -0.5470999
  -0.1931434  -0.0130219   0.0004799  -0.2459373   0.6775031   0.4236085
  -0.3097759  -0.6032527   0.0631853   0.0288515   0.0438214   0.0449835
  -0.1442579   0.0599408  -0.9764241   0.1736037   0.3302637   0.1689449
  -0.0504148  -0.0885491   0.0251907  -0.8101003   0.0384473   0.2387107
  -0.2483576   1.7186927   0.4902394  -0.2823694   0.3094326  -0.0670859
   0.8653076   0.2961302   1.2469456   0.5355044   0.7004880  -0.6107335
  -0.0844005  -0.1446680  -0.2741374   0.0621459   1.5871260  -0.0322167
  -1.4372811  -1.4657764  -0.0236999   0.2493210  -0.1034060   0.3487002
   0.4656084  -0.2664326  -0.3898724  -0.1906800  -1.4974952  -0.4731727
   0.3964645  -0.3073071   0.0898429  -0.7080629   0.9624931  -0.3027374
   0.9505753   1.0690134   0.7552445  -0.1451909   0.3011334  -0.0041431
  -0.2054979  -0.4483120   0.0290526   2.0596560   0.3281578  -0.4950794
  -0.0954796   0.1993722  -0.1406183   0.0526310  -0.8779472   0.0357169
  -0.8968314  -0.7271618   0.0611853  -0.3316007   0.1012026   0.1068459
   0.2767110  -0.2234626  -1.1180860   0.2385709  -0.6439928  -0.9906497
   0.2228893  -0.2422893   0.0342059  -0.1679123  -0.2818194   0.0141031
  -0.5172101   1.5814595  -0.7082169   0.2824778  -0.0951525   0.1316121
  -1.1771834   0.3687558   0.2947926  -0.2537025   0.9547507   1.9857436
   0.3230799   0.2506829  -0.0076281  -0.2322353   1.5840530   0.1286201
  -0.2398051  -0.4726317  -0.2669508   0.3953695  -0.0048846   0.0135155
  -0.9853200  -0.4465156  -0.3346980   0.5666956   0.7489497  -0.0610311
   0.0122056  -0.1288788  -0.2300450  -0.7299572  -1.2295425   0.1706690
   0.9444805   0.5204766   0.2347073   0.2185839  -0.1816546   0.2273666
  -0.4471655  -0.0194976  -0.2068146   0.6801861   0.1202806   0.4388308
  -0.0849067  -0.1864355  -0.2001688  -0.1022493   1.1609832  -0.6048925
   0.3963352  -0.2237592   0.2059115   0.1450808  -0.0848743   0.0555241
   0.5661479   1.2080771  -0.3093706   0.5927099   0.1052576   0.1032057
  -0.0856891  -0.0563780   0.2011814   0.1539405  -0.7707714   0.5074134
  -0.3810487   1.1594486  -0.0083774   0.1271091   0.0342429  -0.0532309
  -1.0319650   0.5164055   0.7573679   0.4020133   0.9172329   0.7023627
   0.0385834   0.0203875   0.0539010  -0.1699643  -0.9805628   0.9159915
  -0.5965569   1.1726433  -0.0881733   0.1007717   0.2070069  -0.0808670
   1.1801097   0.4800792   0.0328979   1.0030749  -0.0013431   0.5305528
   0.4923010   0.0135598   0.3685792  -1.5012671   0.0240870   1.1870640
   0.3318624  -0.6177796   0.2727183   0.0299240  -0.0359994  -0.2176135
   0.2248887   0.8439060   0.2041565  -0.6384942   0.0084246   0.2068533
   0.3257307  -0.1498747  -0.0504069   0.5118924  -0.3686858  -0.2194143
   1.3268228   0.0808769  -1.3249941  -0.1834528  -0.0321982   0.0155388
   0.9694169   0.0469907  -0.1138177  -0.6952143   0.4196219  -0.7964825
  -0.3549133  -0.1446456  -0.0728916   0.4474968   0.2623878  -0.2030487
   1.5087945   0.3665134   0.2321762   0.0831712  -0.1039611   0.1899653
   0.2067980   0.4033516  -1.4564077   0.8759068   0.6552129   0.0511576
  -0.1208406   0.3737312   0.1080110   0.7184134  -1.0939796   0.4522204
   0.4296081   0.2194811   0.5942150   0.0681108   0.3296693  -0.4139481
  -0.3088495   0.4027144   0.4826896   0.1036643   1.0178581  -0.8508767
  -0.4018594   0.1884099  -0.4833608   0.6046361   0.4523608   0.4467054
  -0.2011999  -1.3293291  -0.5972835   0.4022626   0.0205597  -0.2053233
   0.1366552  -0.6459817   0.1122631  -0.1800215   0.0910960   0.4823453
   0.0966130  -0.1603631   0.1751895  -0.9224539  -0.2478089   2.0180537
   0.7402693   0.5062714   0.3523943  -0.0286044  -0.1202703   0.1260286
  -0.7485645   1.3258571  -0.1439306  -0.6771690   0.0378880  -0.6019741
   0.3901404  -0.1759428  -0.4134982   0.8314558  -0.1622875   0.9045833
  -0.8244541   0.2803081   0.4361239   0.0450829  -0.0277266   0.1427694
  -0.3856449   0.1852772  -0.5480239   0.5517543   0.9374841   0.0129424
  -0.0264986   0.0978956  -0.0986064   0.1474956   1.2664459   1.1725714
  -0.4659520   0.0686232   0.3947759  -0.1023799   0.0233050   0.0647351
  -0.4518022   0.2646408  -0.5438186   0.3337076  -0.2010023   0.6263368
  -0.6103437   0.0092022  -0.1035542  -0.2580412  -0.2207324   0.3286970
   0.0888261   0.6935756  -0.2993007  -0.1343354   0.2810015   0.1673266
  -0.4483491  -0.9298311  -0.5413105  -0.7737646  -0.4013299   0.0637451
  -0.2715624  -0.2707706  -0.1258931   1.0697251   0.3488376  -0.2404531
  -0.3603449  -0.2324085  -1.2370725  -0.0244021  -0.0585189  -0.1828367
  -0.6296348   0.7556007   1.1997067  -0.2132550   0.7537599  -0.7837675
  -0.0637518   0.0566540  -0.3108976   0.3924260  -0.0377345   0.6401440
  -1.1848898  -0.8217916   0.6000023   0.0785230  -0.1220572  -0.1229639
  -0.0468258  -0.3221714   0.3667026   0.8036411   0.5367506  -0.4855453
  -0.0413997   0.0691655   0.0100680   0.5350229   0.7673550  -0.8995643
  -0.0115466   2.4120605  -0.0473779  -0.2164095  -0.1560865  -0.0346795
  -0.3850272  -0.5849492  -1.2234500  -0.4479121   0.1440920   1.5914546
   0.0801438   0.5050754   0.0428466  -0.6185118   0.2703207  -1.1332528
   1.3461441  -1.1172388   0.6703323   0.2629975   0.1227954   0.2180119
  -0.6905707   0.0671319  -0.3587654   0.2384530  -1.2629302  -0.5738919
  -0.5076524   0.1191289  -0.0158376   0.3850297   0.3641291   1.1793476
  -0.0480825   0.4228531  -1.0644908   0.0323276   0.1839844   0.1250280
  -0.0122117   0.1671617   0.0979838  -0.4206769   0.4594153   0.6084549
  -0.2288581  -0.0156671  -0.0565173  -0.4346556   0.6213600  -1.5742444
  -0.7674666   0.8995766   1.1406274   0.1974228  -0.0836437   0.1755789
   0.3336392   1.4715040   0.8831891   0.2284615  -0.6910507  -0.0268540
   0.1941908   0.3707900  -0.1659678  -1.2337356  -0.8992220  -0.8108405
  -0.5547682  -0.1817135   0.5555714  -0.2883972  -0.0336983  -0.3318765
  -0.1387975  -0.6170783   0.2260774   0.4079982  -1.4501606   0.4979603
  -0.1085285   0.1537754   0.0189269  -0.4938664  -0.0489711  -0.2441882
  -1.4512804   0.0449692   0.2252560   0.2308909  -0.4442793  -0.2556557
   1.0041361   0.4942154  -0.6380876   0.0569535  -0.3335715   0.4376070
   0.1468681  -0.2025191   0.3018705   0.6584651  -0.4736533  -0.8291943
   0.7612735  -0.2405370   1.4962281   0.0180421   0.2575961   0.0261046
  -1.0087486  -0.5535551  -0.3789990  -1.0387298   0.8033755  -1.0275395
  -0.0283693   0.0716974  -0.0347870  -0.2160051   0.9223890   0.4181015
  -0.0315145  -0.7273408  -0.4572410  -0.0488320  -0.2146713  -0.3073779
   0.7395823  -0.9511077   0.8010658  -0.1190612  -0.3313901   0.6025390
   0.0478727   0.3145686   0.0092361   0.3676887  -0.6569253  -0.6161065
   0.5049617   1.5079280  -0.5430866   0.1203498  -0.0414629   0.1883149
   0.1481111  -0.6737419  -1.3974771  -0.0571225   0.2856629   0.1945246
   0.0921881  -0.0364389   0.1815716   0.5174070  -0.3653270  -0.6422578
  -0.4765234  -0.7985981   1.1539637   0.0420055   0.3133653  -0.0122034
  -0.5691885  -1.5952647   0.1684705   0.4597081   1.2842413  -0.3558068
   0.2198840   0.6257939   0.1353856  -1.0761952   0.5551295   0.2008063
  -0.2065180  -0.3316079  -0.4646439   0.0853134   0.2270336  -0.2032902
  -0.5130860  -0.1563510  -0.8134606   1.3156550   0.9785246   0.9468878
  -0.1055245  -0.3307485   0.1371738  -1.0409692   0.4498704  -1.4162802
  -0.2803461  -1.7618269  -0.0509952  -0.0349589  -0.0324787   0.2007305
   0.2024823   0.0716755   0.0565842  -1.1576551  -0.1851846   0.2182336
  -0.0614802  -0.0884093  -0.0651217   0.0606307  -0.0756212  -0.0387179
  -0.6867847   0.6985726  -0.5443131  -0.0262616  -0.1697947   0.1095573
   1.1537793  -0.6701271  -1.2524607  -0.7633040   0.8013223   0.1622799
   0.0228832  -0.0335101  -0.2564065   0.5911748   1.2487716  -0.6863755
   0.9180719   0.6699511   0.3616647  -0.0397823   0.1757494  -0.0766857
  -0.8154956  -0.6651088  -1.0993745  -0.8927631  -0.5951839   0.4280342
   0.0990671   0.2354101  -0.2378754  -0.3554545   0.2871327   0.9493544
   0.1201287  -0.6948785   0.0464226   0.2979767  -0.3534963  -0.1286580
  -1.5053609   0.0789096   0.0798313  -0.2641006  -0.0351374  -1.7628487
  -0.1020306   0.0378802   0.0284320   0.1566857  -1.4211046  -1.7411856
  -0.1193749   0.0886592   0.6712553   0.0637137   0.1962987   0.3523637
  -1.4195382  -0.9292563  -0.4156260  -0.5531182  -0.8482858   1.3829363
   0.0832133  -0.0643979  -0.0865526  -0.3688513  -0.0221469  -0.5675567
   0.1827869  -0.4626424   0.5369945  -0.1388499   0.0761367  -0.1003855
  -0.2566792   1.1105413  -0.7990970  -1.4970499  -0.6410604   0.6575296
   0.2037747   0.4719115  -0.3741608   0.2124401  -1.2701200   0.9650366
   0.0938633   0.4221612  -0.2026335   0.2391549   0.2315919  -0.0701974
  -0.4114100  -0.1542319   2.6165237   0.6384524  -0.0250065  -0.1239903
   0.0291451   0.1929666  -0.1033090   0.2629738  -0.3923284   1.3804578
   0.0806984   0.9729261   0.5793895  -0.0372237  -0.1862005  -0.0409035
  -0.4567976   0.6269242  -0.3528785   0.2804272   0.5303438  -0.6466440
  -0.0418562  -0.3329060   0.1178606  -0.2062136   0.8304711  -0.6834049
  -0.8477858   0.0195328   0.4239363  -0.0153782   0.1568711   0.3090173
  -0.4718916   0.9982041  -0.2257254  -0.3118405   0.0250364  -0.0770816
  -0.0392165  -0.1140847  -0.2433899  -0.7426842   0.8204811   0.1789214
  -0.4045794   1.4469539  -0.3978892  -0.2778230  -0.1605556  -0.1327894
  -0.7537825  -0.8547471  -0.0723839   0.2358761  -0.2057637   0.1650649
   0.1035766   0.1117348  -0.1363054  -1.7434519  -0.3290171   0.8849911
  -0.4063092   1.1695210  -1.9907874   0.1391078  -0.1616328  -0.1135521
   0.8825843   0.9210315  -0.8486151  -1.2376546   0.0695185   0.3520459
  -0.0974198  -0.0889348   0.0109576   0.1525006  -1.2648700  -0.9407347
  -0.1251913  -1.5866470   0.6949517  -0.0131032   0.0886287   0.5128387
   0.6428355  -1.0154554  -0.0335187   1.6577712   1.5040312   0.1827265
  -0.0802012   0.1088109  -0.0321817  -1.2603379  -2.1209839  -0.7086917
   0.3982831  -0.2962683   1.1508922   0.1003379   0.0947712  -0.0259820
   0.5077568  -1.9950881   0.1704136   0.8245486  -0.2412319   1.0566236
  -0.3242731   0.3228215   0.1040088   0.3054869   0.3656392  -0.1562784
   0.2730491   1.0466253   0.0855717  -0.2016542   0.0888240  -0.2054971
  -0.2045419  -1.3374031  -0.4376190   1.3466320  -1.2144329   0.9051070
   0.1001613   0.0539004  -0.0926164   1.0273142   0.6563481   1.1355073
  -0.4915247   0.0092854  -0.5767391   0.1455368   0.2356371   0.0408467
   0.9765798  -0.2581927  -0.4393299   0.5677012   0.9450802  -0.6222353
  -0.5176904  -0.0636165   0.0378523  -0.0535382  -0.1385453   0.5937917
   0.3772944  -0.2693926  -1.0770039   0.0898157  -0.1247090   0.1071708
  -0.2175090  -0.8871658   1.5374230   0.3433295   0.1367018  -0.4395722
   0.2061336  -0.1438416  -0.1312287   0.5905240   0.3480031  -0.6621581
   0.2541930   0.7314701  -0.8249405  -0.0283286  -0.3664742  -0.1741679
   0.4959107   0.6971465   0.2085916  -0.0073154  -0.6093600   0.5144396
  -0.0089326   0.1907374  -0.2043446   0.7473824  -0.2506728  -0.6997840
   0.4124116  -0.6097574   0.8559673   0.3731173  -0.0882508  -0.1712528
   0.1560573  -0.1197386   0.2037641   0.2090527   0.0879486  -0.3972095
   0.1277946   0.4000881  -0.1679614  -0.4813317   0.1778183  -0.3396738
   0.2429857   0.8268564  -0.0121187  -0.0722177  -0.2284736   0.0950193
  -0.6125913  -0.0940201  -0.5851071   0.1870472   2.0360872  -0.0620900
   0.2146425   0.2444006  -0.2070643   1.1056025   0.3641562  -2.1217896
  -0.0431879  -0.3356159  -0.5470982  -0.0176606  -0.0120419  -0.1935239
   0.2925571   0.0772477   0.7816421  -1.1277761  -0.0625505   0.0130303
   0.2206326   0.0448136  -0.0826236  -0.3428111  -0.0443274  -0.3100337
   0.8932245   0.7168932  -0.0857406   0.1181650  -0.1297676  -0.1350118
   0.4759117   0.2247279   0.7072786   0.0424904  -0.9629568   0.6057500
   0.1724785  -0.0344613  -0.1399178   0.4857149   0.5988976  -0.5889608
  -0.3052737   0.1769612   1.4938662   0.4179831  -0.1870399   0.2768258
   0.3749342  -0.6486877   0.4636374  -1.2560122   0.4741563   1.0146834
  -0.3517000  -0.3238661   0.1901038  -0.5941274   1.1135995   0.1009919
   0.1761667  -0.2012531  -0.5093346   0.2287454  -0.2165244   0.3598973
  -0.4444861   0.0608841  -0.3171343  -0.8853398  -0.0587077   0.9158238
  -0.0621795  -0.0373835  -0.2424116   0.8220590   0.4222278   0.0047711
   0.8000314  -0.5747710   0.1755946  -0.0683439   0.2455102   0.4428416
  -0.0938790  -0.0394990  -0.5016245   0.3958767  -0.9179882   1.0922361
   0.2695374   0.0701077   0.1267871   1.0852762   1.2152187  -0.0950348
   1.4518497  -0.5580575   0.2810620   0.0679886   0.1563748   0.0243627
   0.6728086   0.1543626   1.2634821  -1.0858366  -1.0179986   0.4891442
  -0.0316516   0.2255968   0.1990433   0.6500347  -0.4836009  -0.5105931
  -0.3557175  -0.5361697  -0.9158662   0.0872948   0.2326075  -0.0085408
  -0.7121352   0.6111874  -1.2605489  -0.6543085   0.3503702   1.0479135
  -0.1199927   0.0623739  -0.0603968   0.7219069   1.0583108  -0.5902284
  -0.1459835   0.0666155  -0.2102514  -0.0220062  -0.1128700   0.1646672
   0.2371665   0.6465046   1.1212296   0.3874142   0.0356628  -1.3765710
  -0.1862381   0.0228483   0.4208473  -0.5173714   0.3213116   0.3782045
  -0.5778786   0.0347744   0.1889659   0.1025914   0.0114633  -0.0937563
  -0.2493361  -0.5746939  -0.6645185  -0.0131519  -0.4606173   0.4577150
   0.1637834  -0.0590189  -0.1462673  -0.3536279  -0.3737386   0.7025330
  -0.3246439   0.0199270   0.2650534  -0.0498727  -0.1392378  -0.1793259
  -0.5364522   0.1747907  -0.3940466  -0.1538828  -1.6365474   0.8779016
   0.0598609  -0.0004302   0.1896447   0.3623172  -0.1684248   0.5579622
   0.9044511   0.2387870  -0.3830680   0.0143925   0.0607228  -0.0930166
   0.3306276  -0.8247266   0.1563222  -1.7729076  -0.9766909  -1.2612780
  -0.1003422   0.1693439   0.0064629   0.6712537   0.7032074   1.4510698
   0.4213090   1.0090133   0.3584282  -0.4531963  -0.0961428   0.0750493
   0.0886839   0.4596349   0.6033057   0.9414356   0.1746501   0.0340125
   0.0608962  -0.2412184  -0.1336608   0.7285046   0.5889607   1.4859578
   0.9474240   0.0879334   1.2224513  -0.0615642  -0.0868952  -0.1288360
   0.5576970   1.2283790  -0.0629800   1.0636727  -0.5537197   0.9176179
  -0.2007459  -0.2210988  -0.0917432  -0.3508347  -0.3916382  -1.0885593
   0.0953947   0.5402850   0.3037178   0.0724644   0.0656012   0.2235056
  -1.0810475  -0.0133955  -0.2700850  -0.1627427   0.7520603   1.2796760
   0.0730386  -0.0883631   0.2079898   0.3780919   1.6520193  -0.7300394
  -0.1981867  -0.0789216  -0.3057747   0.1133351  -0.3422818  -0.1791412
  -0.1496815   0.1180656  -1.0522419   0.0037214   0.2353622   0.0539562
  -0.0496920   0.1135910   0.0968118   0.5929064   0.7819829   0.0583555
  -2.0795477  -1.1779023   0.4118450   0.0397450  -0.0878447  -0.2774314
   0.3309670   0.1392696   1.3363304  -1.7604505  -0.5966287  -0.4683970
  -0.0609853   0.1212448  -0.0492227  -1.3142788  -0.0462000  -0.2066306
  -0.6841262  -1.6197325   0.3207532   0.3818438   0.0488602  -0.3148491
   0.0545452   0.5587741  -1.1486837  -0.7386705  -0.0229613   0.9691340
   0.1725756   0.1028777  -0.1327327  -0.9988826   0.3410485  -0.5282142
   0.5641837   0.8290870   0.2624203   0.0923845   0.0105674  -0.3778016
  -0.7197555   0.3600641  -0.6829747   0.6907286  -0.7524069  -1.2933742
   0.0570272   0.0221185  -0.1983855  -0.9233731   0.6892572   1.4812988
   0.1826781  -0.4894375  -1.2318738   0.1499067  -0.0743392   0.0920026
   0.5014352   0.8993991  -1.7218652  -0.8218880  -1.0533642  -0.0636889
  -0.2385300   0.0397005  -0.0414378  -0.4481418   2.1182937  -0.9915926
   0.4480927  -0.1342360   0.1204788   0.2886057   0.2592364   0.2903164
  -0.5375535   0.0095175  -0.8255620  -0.3643355  -0.9786339  -1.4700203
   0.0001130   0.1319836  -0.0490496   1.0801601  -1.0300756   0.2651496
   0.3359800   1.0155598  -0.1619252   0.2340171   0.0585740  -0.1559074
   0.4308119  -0.3445992   0.4527993  -0.7335722   0.0087015   0.0352500
  -0.2080851  -0.1093146  -0.1229000   1.6885047   0.0296491  -0.2117471
  -1.2170224   0.2096889  -0.6814225  -0.3074218  -0.1692517   0.1633670
  -0.4336078  -1.2378917  -1.7408836   0.3326679  -0.4961544  -0.2431768
  -0.1964345   0.2785912  -0.0008456  -0.8962081  -0.2072939   0.7857791
  -0.6123220  -0.6574161  -0.3087146   0.1145939   0.0561368  -0.0577912
   0.7593109  -0.6119278  -1.4429811   0.2887345  -0.8066324   0.5945115
   0.1941370   0.1197498   0.0162525  -0.4076066   1.5102899   0.6222927
   0.0702679   0.9105424   0.4107945  -0.0226700  -0.2310332  -0.0312840
   0.3395521   0.6417485  -0.8075496  -0.2334673   0.2570569  -1.1189330
   0.0976891  -0.0202864  -0.0151283  -0.0153831  -0.8450532   0.0428236
  -0.0129779   1.1654687   0.0478453   0.0692448  -0.2987902   0.2530131
  -1.2027689  -2.0964925  -0.5782113  -1.1148022   0.9010798   0.2883746
   0.0477903  -0.1582340   0.2649704  -0.7882902   0.1271108   0.7687169
   0.5864444  -0.7878766  -0.3469913  -0.3455271   0.0405289   0.1459613
   0.2119720   0.9979893  -0.1637111  -0.1355961  -0.7481572   0.5451655
   0.1377944   0.0239613   0.0010451  -0.3295577  -0.0290014   1.1942905
  -0.9626862  -0.8188351   0.0666711  -0.0404102  -0.2074865  -0.0127793
   1.3834237  -0.0713958  -0.6784194  -0.9682226  -0.5877886   1.6675675
  -0.0699346   0.1002210   0.0095080   1.6249118   0.5237951   1.6552158
  -1.6905860   1.1254982   1.2941132   0.1234641   0.0894261   0.0619814
  -0.0464672  -0.0865281  -0.1943633  -0.4622274  -0.3134198  -1.1275406
   0.0427352  -0.0127399   0.1502675   0.1176497  -0.6951130  -0.8286031
  -0.5788314   0.8781797  -0.2656182   0.0438956  -0.0352167  -0.0063934
  -0.0861936  -1.8129743  -0.2950495   0.5361319  -0.9310755   0.2528780
  -0.0943257  -0.2514760  -0.0174986  -1.2293107  -1.4515481  -0.2446506
   0.2510208   0.4836825   0.7920823  -0.1520838   0.0607313  -0.0342078
  -1.1112889   0.2707940   1.6625557  -0.4328563  -0.7894277  -0.9231626
   0.1124445  -0.2064481   0.0640121   1.3334993   0.7120185   0.9766856
   0.4482255  -0.2089129   0.7757619   0.1671634   0.0051266  -0.2328873
   0.6179142  -0.0024380  -0.7459301   0.0715165   0.0195271   1.1084117
  -0.4484138  -0.1054085   0.2197484  -1.1914506   1.0998685  -0.1452050
  -0.3075792  -1.1746600   0.0512147   0.4643612   0.1745690   0.1353935
  -0.3978354   1.3183249  -0.6592154   1.3104806   0.4094826  -0.7607845
   0.2867242   0.1656167   0.3236869   1.2371001   1.6708485  -0.0659288
  -0.8907424   0.9345024   0.9956464  -0.1813129  -0.3617516  -0.0382957
  -0.7643008   0.0023902   0.5103226  -1.3078613   0.3201967  -1.2687445
  -0.3465038  -0.3856180  -0.0236385   1.1225134   1.0683360  -0.3809973
  -0.5619041   0.7438902  -0.4765519   0.4402298   0.2281849   0.0032993
  -0.4879682  -0.4807131   0.4700132  -0.3512751   1.1038078   1.5421749
  -0.2052615  -0.0183998   0.1515264   0.8547488   0.4119693   0.6291759
  -0.1982257   0.1936626   0.8708558  -0.3203524   0.0960740  -0.0629543
  -0.1903169  -1.1379120  -0.3305521   0.4788928  -1.3390324   0.1888144
   0.1259033   0.1355388  -0.2401996   0.3316935   0.2446281   0.5772107
  -0.9848458   1.5652502   0.7944236  -0.1876078   0.3037538   0.2315111
  -0.1199845  -0.6800450  -0.3639324  -0.0590387   1.3660102   0.4671932
   0.2575559  -0.2537783   0.0617827  -0.2302801  -0.0242387  -0.8388753
   0.1756446   0.1912941  -0.0654904   0.2147992   0.0440375   0.0537601
   0.8670523  -0.1955053  -1.5715764  -0.7005323  -0.8794311  -0.6936281
   0.1299529   0.0057415  -0.1545189   1.4459886   0.2883270   0.2815966
  -1.1475393   0.0920917  -0.1799482  -0.5639191   0.2560518   0.0148511
  -1.3082478   1.4105002   0.3083559  -1.2030251  -1.2518387   0.0974659
   0.0513715  -0.2010717   0.1057707  -0.5920345   1.5594471   0.1170303
  -1.7119623  -1.2702137   1.3835860   0.2120352   0.0605077   0.1723646
   0.1608502   0.3511593  -0.0107923   0.4325726  -0.8870962  -0.2182945
  -0.2637358  -0.2914041   0.3880435  -0.2886532   0.4411584   2.4763475
   0.8200849   1.0058393   0.8116364  -0.0572131  -0.0722341  -0.0412801
   0.2953620   1.2679669   0.1106921  -0.4885699   0.6958929   1.1762224
  -0.1421246   0.4569220  -0.2051971  -0.2843484   0.0478610   0.7053697
  -0.5435185   1.5252795  -0.5751856  -0.1602880   0.0437589  -0.4024991
   0.4952959  -0.6401153   0.7020403  -0.2477279  -0.4340223   0.9979689
   0.1704883   0.0658866   0.2749239   0.0536698  -0.2194479   0.8335701
  -0.9714514   1.5752268   0.1798627  -0.0214505   0.1566598   0.4398036
   0.1698874   0.3677493  -0.5068841   0.6120189   0.7114234   0.4278875
   0.2932862   0.2348160   0.1899988  -0.3215482  -1.5390145   0.4834045
  -1.0431553   0.2072413  -1.3946412   0.3715546  -0.0359310  -0.1415839
  -0.6212486  -1.2363382  -0.8924750  -0.2101908   0.4507003   0.7937191
  -0.2609764  -0.0101775   0.0283307   0.2539866   0.3580061  -1.4750002
  -0.4136084   0.7403720  -0.7524510  -0.3549305   0.1968844   0.3140605
   0.2186887   0.7946222  -0.5994627  -0.2988122  -1.3319421  -0.3635311
  -0.1956714   0.2440815   0.0816118   1.1852759   0.4103346   0.3881997
   0.2337057   0.7865637   0.4955130  -0.2053814   0.1860925   0.3469741
   0.0705929  -0.0805651  -0.8323811  -0.4369255  -0.9247352  -0.0755807
  -0.2948073   0.0835536   0.0627582   0.3594442  -0.3394348   0.5100559
   0.5829949   0.3027004  -0.4516852   0.0889253   0.0781683  -0.0477491
   0.0976904   0.1063719   1.2332677  -0.7471542   1.0548118   0.1009833
  -0.1353080   0.2147518  -0.2631661  -0.5408931   0.2043948   0.7402930
  -2.2619703  -0.6212823   0.7240283  -0.0222748  -0.0550168   0.0153140
   0.8970735  -0.3579636   0.5973050  -0.5216038  -0.1878173   0.3626216
   0.0557110   0.0964910  -0.2206540   1.0466034   0.9423066  -1.0442068
  -0.3503473   0.9803493   0.1050646  -0.1885550  -0.3852877   0.0960384
   0.1370520  -0.3037583  -0.6396475   0.7725610   0.7851444  -0.4059346
  -0.0548381   0.0375121  -0.2175372  -0.3342162   0.8073178   1.1367468
  -0.2426120   0.2963184  -0.5510724  -0.0933579  -0.1587805   0.2004072
  -1.1740825  -0.5100512  -0.4702166   0.2698519   0.2433012   0.0128308
   0.3658464   0.0814572  -0.0999294   0.4248815   0.9006359  -0.0222626
  -0.4072620   0.0860802  -1.0820271   0.0530090  -0.1681039   0.0311556
  -1.5712943   0.4225509   0.5457567   0.2763264   0.6175577   0.2112428
   0.0642662  -0.1199521   0.1786516   0.4070364  -0.6651418   0.8221414
  -0.7992110  -0.0718429  -0.2216620  -0.5002377  -0.3427853  -0.0019887
   0.0389567  -0.9648429   0.2246530   0.6843580  -0.6080691  -0.5519167
  -0.0414372   0.0819239  -0.1186607  -0.9147426  -0.1852859   0.3313663
   0.5697847   0.1877828  -0.4608258   0.0471947  -0.0866903  -0.0366895
  -0.3786918  -0.1095551  -0.1740973   0.7063493  -0.3992110  -1.5790217
  -0.0878421   0.2418856  -0.1525104   0.2801055   0.5027654   1.4426324
  -0.3019930   1.3173690  -0.6043706   0.1445172   0.0155757   0.2901055
   0.6004949  -0.5827695  -0.8408355   0.2726001  -0.6543708   1.3123977
  -0.3238179   0.0502305  -0.2033008   0.3173394  -0.9386943   0.1066586
  -0.3611717   1.7152435   0.0306646   0.1544323  -0.1276536  -0.1527099
   0.2680400   0.2716520   0.2436722   0.1068910  -0.5133985   0.6392635
   0.2431675  -0.2821210   0.1421815   0.5937945   0.4047816  -0.2962895
  -0.1514817  -1.8924458   0.4819384   0.0503725   0.3249672  -0.1201054
   0.1996282  -0.3231630  -0.6514428   0.1749155   1.9558400  -0.1389358
  -0.3428082  -0.0720301  -0.0222303   0.9010922   0.2479115  -0.5139195
   0.8246221   0.3266460   0.6240207  -0.1382466   0.1150341   0.2083958
   1.0839489  -0.5999779   0.0522805  -0.3267778   0.0308229  -0.7038201
   0.0407272  -0.1924151   0.0829683  -0.4909952   0.8429872   0.8377970
  -0.0875645  -0.9162545  -0.2449979   0.2076823   0.0205668   0.1186075
  -0.0456635   1.9020255  -0.8182150   0.0723156   0.0186214  -0.6206227
  -0.1958710   0.1836258   0.0126015   2.2477307   0.6538849  -0.6371268
  -0.5517936  -0.7632384   0.7946539  -0.2000603   0.0922169   0.0438648
   0.3306598   1.1304242  -0.7591132  -0.0019615  -1.0197319  -1.2037426
  -0.0837213  -0.0108891   0.0603581  -0.2350986   0.4103663  -1.0285998
   1.0320128  -1.3102705  -0.1199168   0.1613484  -0.2314727  -0.3408356
   0.3331598   0.7352946  -1.1221405  -1.5633502  -0.3955757  -0.3489417
  -0.0577817   0.0111891  -0.1184919   1.1699259  -1.0459852   0.0227154
   0.1655388  -1.2004422   0.5649782  -0.3736647  -0.0853184   0.1804268
   1.1082062   2.0738327  -0.2168252  -0.4294896   0.2385815   0.3706423
   0.1909470   0.2113824  -0.0347838  -0.6031207  -0.1459601   0.5999401
  -0.4237340  -0.2856538   1.1899151  -0.0197983   0.0306759   0.2139432
   0.3356636  -0.0403078  -0.0670971   0.9347444  -0.7507050   0.7560727
   0.2275174  -0.2057350  -0.0791606  -0.5163520  -0.4734710  -0.8993038
   1.0204053  -0.0028011  -0.4076515   0.0171810  -0.0380874   0.1020109
  -0.7342814   0.1348864  -0.2888376  -0.6867421   0.2720658  -0.7946543
   0.0023817  -0.1963471   0.1765755  -0.3818211   0.0916189   1.0350841
  -0.7669378  -1.4032349  -0.3879031  -0.2101858  -0.0075249  -0.1431651
   1.3474556  -0.8291952  -1.3783803   0.7303240   0.4188939  -0.2970860
   0.0349326   0.1615652  -0.3024902   1.1515422  -0.2643335   0.6725385
   0.5829927   0.5025567  -0.4631685  -0.3260166   0.0982272  -0.1759352
  -0.2366621   1.1728581   1.1640745   0.6295165  -0.2564843   1.3785602
  -0.4462300   0.0778546   0.2883469   0.7823588   0.1105960  -0.7886445
   0.4524667  -0.2715481  -1.6757334  -0.2998853   0.0747924  -0.0308852
   0.2516174  -0.4334374   0.6505134   1.3054020  -0.0750020  -0.4714938
   0.0502019   0.1204447   0.1495441  -0.1186133   1.6340702   0.0379492
   0.3199818   0.5533271   0.1745965   0.1654116   0.0967211  -0.4513429
   0.4465340  -0.6963342  -0.7167352  -0.1566727   1.0972810   1.1428330
  -0.2481275   0.3064985   0.1149568  -0.1971193   0.1191217  -0.5275158
  -0.6295598  -0.6675471  -0.0958311  -0.0952662   0.1973797  -0.3578076
  -0.2377370   1.3533231  -0.4095689   0.3272228  -0.3047847   1.0198715
   0.0237736  -0.0554793   0.1939836   0.2079451   1.3172240  -1.3882922
   0.8713537   0.2162089  -0.8420367   0.0086320   0.1096720  -0.1289249
  -1.4984232   0.4818199   1.1928451  -0.7189321  -0.1621529  -0.0446600
   0.4633378  -0.1032227  -0.2080568   0.1517338   0.1114161  -0.5148996
  -1.1101796  -0.5557333   0.3684406  -0.0675975   0.3153555  -0.1699652
  -0.3582006  -0.7654175   0.2859413  -1.0734752   0.8744273  -0.1399674
   0.0984340  -0.0918679  -0.0708811   0.4487615   0.6340990  -2.2198904
  -0.6230039  -0.7852269  -0.3572503   0.2292888  -0.0403133   0.0567762
  -0.2701109   0.4554199  -0.1043680   0.1974036   1.4296694   0.2427998
  -0.1046452   0.3751131  -0.0021276   0.2977579   1.0653062  -0.6776363
   1.3327265  -0.3508533  -0.2021652  -0.4767550  -0.0415762   0.0163293
  -0.4524852  -1.3798753   0.4703973   0.2574851  -0.6303382   1.2127232
  -0.1082599  -0.2983638  -0.1104924   0.9219217   1.3120155   0.9630218
   1.1250504  -0.6538651  -0.2573566  -0.0149743   0.0209506  -0.2014215
   0.3523276  -0.9536939  -0.2476340   0.3417626   0.6603902   0.3255168
   0.1253357   0.1769343  -0.1815708  -0.2892505   1.7307298   0.1877508
  -0.7173996  -1.2792080   1.3734664   0.1832780  -0.3589936   0.0106239
  -1.0691940  -0.3252244  -1.6553068  -1.1949432  -0.5912660  -0.2107645
   0.1266080   0.0114393   0.0800785   0.7175430  -1.3691428  -0.4496945
   0.0985298  -0.2351240   0.7440415  -0.2500720  -0.0512254   0.0671175
   0.7531630   0.5775369   0.0424446  -0.6567981  -0.1040776   0.4587440
   0.0216019   0.0130321  -0.0681845   1.2660732  -0.7509878   0.3171313
   0.1946012  -1.0151814  -0.4850702   0.0160447   0.6679015   0.1971540
   0.1871541  -0.9360872   0.5997574   0.9600382   0.0355656  -0.5576194
   0.3292964  -0.1669541   0.3061490   1.2099093  -0.0048501   0.0459525
   0.5179648  -0.4174768   0.2185451   0.2078177  -0.0907037   0.0042370
   0.4318837  -0.0823708   1.3143254   1.5947229  -0.7474676   0.0318443
   0.1797339   0.0326223   0.0090829   1.6377425   0.7714071  -0.4358269
   0.4659797  -0.7169616  -1.2511460  -0.1741571   0.2163875  -0.0494360
   1.3804337   0.3395724  -0.1109161  -0.6801081   0.5392441  -1.1890801
   0.4597625   0.3892517   0.2552265   0.0104415   0.3580661  -1.9637026
  -0.9060401  -0.0396509   1.2061132   0.2712157   0.0795753   0.1092540
   0.1360721  -0.0952610  -0.6577476  -1.7754418   0.3835842  -0.3019940
   0.0565776  -0.0663794   0.0731215   0.7586098  -1.7764430   1.1420328
   0.3749946  -0.6996112  -1.3913834   0.1598787   0.0908883  -0.1651129
  -0.3798331   0.6813491  -0.2707125   0.2126134   0.5439671  -0.0729532
   0.0300442   0.0513523   0.1859478  -0.5254364  -1.5622237   0.3788121
  -0.2321613   0.9712136  -0.6317427  -0.2757269  -0.0508501   0.1208643
   1.3557872   1.3965701   0.5604031   1.3115852   0.2662951  -0.4996264
   0.3893654   0.0610522   0.0234441  -0.8501882  -1.0703878   0.0400940
  -0.1090185  -0.3715133  -0.7639302  -0.2158762   0.0390058  -0.1936003
   0.7363497   1.0867517  -0.4562227   0.6993979   0.4255905  -0.1099653
   0.3317135  -0.3562156  -0.2672588   0.2214160   1.7278519   0.7751669
   0.8380585  -0.6326891   0.8568879  -0.0249581  -0.0646621   0.0768899
  -0.6873493   0.7484146   0.9298848  -0.8242708  -0.9068976  -0.4521089
  -0.1622487   0.0387855   0.1718889   1.4109395   1.2510404  -0.4212061
  -0.6705869   1.3126798   0.3750794  -0.1475919   0.0521929  -0.1372681
   0.3755248   0.7104797  -0.1803253   0.1523186   0.1437980   0.1221355
   0.1410345   0.0698121  -0.1717930  -0.9283970  -0.7018601  -0.5995674
  -0.6393455   0.6511591  -0.1894079   0.1879177  -0.0818339  -0.1203300
   0.0090524  -0.0312327  -1.8152402   0.3181921  -0.1079685   1.1285997
   0.3837414   0.0253682  -0.2156080   0.2265743  -0.1723957  -0.0468342
   0.4422992   0.3629493   0.2670806  -0.2103298  -0.2343131   0.2788843
  -0.2258289  -0.3498237   0.5415129  -0.8992930  -0.1026713  -0.3911785
   0.3040833  -0.0093882   0.0000676   0.1909105   0.2396119   0.2563195
  -0.3251236  -1.9528202   0.0555387   0.1210974   0.1629059   0.2694108
   0.3847118   0.0742910  -0.4130067   0.0725853  -1.6295868  -0.7854000
  -0.2022737   0.1061169  -0.0001729  -0.2798342  -0.5861562   0.7975126
  -0.7079069   1.5802114   0.0944777   0.0092154  -0.3794680   0.0960361
  -0.3950028   0.6569983  -0.4272619   0.4670046  -0.0849100  -0.3524959
  -0.1576895  -0.0208718   0.1812141  -0.3151119  -0.9075615  -0.6531078
  -0.0343143   0.3187272   0.4310831  -0.0552086   0.1388694  -0.1817637
  -0.1726459   0.0560099   0.2341079   0.9345918  -1.4150284  -0.2192547
   0.0471814  -0.2461951   0.2788648  -0.7429614   1.1503561   0.0749125
  -0.8573415   0.1780168   1.4100780  -0.0476473   0.4408757  -0.2602484
  -0.8781290  -0.1099597  -1.8887997   0.7505634  -0.1929160   0.3802932
  -0.2042800  -0.0078719  -0.0948435   0.2969299   2.4125406  -0.3718692
  -0.6412701   0.1622864   1.2366472  -0.0027800  -0.1189282  -0.1190941
   0.5094149   1.8545111  -0.0353596  -1.0045252  -0.3452834   0.5758168
  -0.1569190   0.3656236  -0.0064858   1.5828342   1.1484313  -0.8900320
  -0.4061991   1.3192511   0.5188827   0.0506127  -0.0407062  -0.1687691
   0.2836329   0.5987210   1.0103080   0.4238958  -0.4848385   0.5298186
   0.0523299   0.2715154  -0.0629928  -0.7464542  -1.5000174  -0.5948257
  -1.1025906  -0.3009574   0.9935135   0.1264249  -0.1759412  -0.0417252
  -0.1052735  -0.4256495  -0.5657746  -0.1486928   0.1659192   0.9611406
   0.3133035  -0.0810534  -0.0586108   0.6378426  -0.6308284  -1.1901098
   0.8967741   0.8525462  -0.8748006   0.0055883  -0.6009852  -0.1298448
  -0.4153389  -1.4721589   0.2322564   0.6852934   0.1323520  -0.1280274
  -0.0424918  -0.2943240  -0.4091057   0.6090197   1.5469533   0.1601314
  -0.5995546   1.4637498  -0.3104234  -0.4854210   0.1676224   0.2650472
   0.8742677  -1.0511400  -0.6322209  -0.3225808   0.5197729   0.2541666
  -0.4163385  -0.0467340   0.1625182  -0.7218261  -0.2832572  -0.1199592
  -0.1356391   0.0268392  -1.3429037  -0.2281895  -0.2881736  -0.1506066
   1.0329293   0.0124657  -0.4891050  -0.2893292   1.1109587  -0.4994757
  -0.4239256  -0.2134514   0.1725402   0.1173412  -0.1643359  -0.3722086
  -0.2427797  -0.1027034  -0.1194423  -0.2669536  -0.1140261  -0.3425189
   0.1496965   0.3054490  -1.5091692   0.4257366   0.6011272  -0.5891158
  -0.0892280   0.0838288  -0.1376790  -0.1760568  -1.3865816   0.3487648
  -1.3698756  -1.8434342   0.0369664  -0.0910575   0.4296280  -0.2367379
  -0.3318171   0.2854792  -1.3547418  -0.2993654   0.0522965  -0.6741880
   0.0916662   0.0614658  -0.4355455   1.2758166   0.2501926   1.3582573
  -1.1334045  -0.6210789  -0.8961852  -0.0679256   0.1542290  -0.0473347
   0.7051551   0.9587921   0.4120308   0.5603417  -1.2910842  -0.3525027
   0.1848072   0.0191167   0.2612721   0.9367746  -1.7122367   0.7838889
   1.1133461   0.6576265   0.3613056  -0.0505769   0.3158679   0.0948577
   0.5994497  -0.2930011   0.7414711  -0.3948829   0.1562658   2.3867727
   0.2036243  -0.1726595   0.0766637   0.2325526   0.5266095   0.8173536
   1.1852115   0.5416315  -0.4762293   0.1601735  -0.0550138  -0.1047222
  -0.7600108   0.3722312  -0.4479869   0.3321509   0.0455186  -0.0920205
  -0.1319563   0.0463287   0.0690173   0.1459435  -0.4830246   0.6624242
  -0.6081906  -0.1606168  -0.1942658   0.1058492  -0.0002289   0.1349213
   1.5598885  -0.3694444   0.9070620   0.4819613   1.7343118  -0.4167888
   0.0918308   0.1293805   0.1467007   0.3126083  -0.7364143   0.3758781
   0.1899520   1.3119903   0.5770388   0.1676983  -0.1747085   0.0828172
   1.1232943   1.2722104  -0.2936758  -0.3814791  -0.6025012   1.0971478
   0.2731781   0.0748945  -0.0936572   1.5718092  -0.1686102   0.3836582
   1.5016305   0.0005912   0.6840339   0.0187971  -0.2388174  -0.4752608
  -0.7428394   0.6188669   1.7403951   0.1825788  -0.3018037   0.5183559
  -0.1338860  -0.0644286   0.1301767   0.7246557  -0.7825339  -0.7423219
   1.0460319  -0.1634994  -0.1079539  -0.2190572   0.0991239  -0.2697072
  -0.3016472  -0.0117155  -0.6740139   0.4159201   0.0620611   1.9059967
   0.1310448  -0.1009290  -0.0809054   0.8032790   0.5906287   0.0718105
   0.6889230   0.3544909  -0.7677017   0.0722652   0.1621546   0.0686379
   0.5332863   0.7376635   1.3948338   0.7076771  -0.4545731  -1.5987169
  -0.2641323  -0.0333142   0.5308447   0.6372736  -3.2615812   1.2580959
   0.0345580  -0.3670488   0.2247714   0.0708442  -0.0006765  -0.2552101
  -0.9981837  -1.1793106   1.1317977   0.2156072   1.2583402  -0.3074740
   0.0217916  -0.1082651   0.1484014   1.0594278  -0.5717212  -1.1284027
   0.6598995   0.5468348   0.8779779  -0.0053169  -0.2169022   0.0874591
   0.0786767  -0.1604168   1.6246495  -0.9149337  -0.9065247   0.6704959
   0.0278946   0.0391182   0.0854637   1.1288690   1.0455428   0.4965814
   0.1083165   1.3271585  -0.5286276  -0.2366216   0.3150106  -0.0753819
  -1.1838440   0.1824348  -0.5001670   0.5316773   1.0478468  -0.0249469
  -0.3050678  -0.0250886  -0.2382112  -0.3853896   0.7019503  -0.9527080
   0.0134523  -0.0226513  -0.3691798  -0.0969641  -0.0081666  -0.0769246
  -0.1434186   1.1217723  -0.7614780  -0.5145746   1.0604033   0.0266802
   0.1671994   0.0694491  -0.1742940   0.5131067   0.5198389  -0.0389701
  -2.0655013  -0.8938430   0.2349777  -0.2484957  -0.0105432   0.1372748
   0.0108670   0.7242976  -0.1500328  -0.6664266   0.6372093   0.9751576
   0.0135296   0.4134358  -0.2699545   0.1957177  -0.0457517  -0.1948836
  -0.1138443  -0.0968060  -0.4472267  -0.1496357  -0.0872706   0.0658385
   0.1542272  -0.4398705  -0.9374808   0.4590657   0.1676039  -0.2854774
   0.2465631   0.1724554   0.1678131   0.0846878   0.5517255  -0.0762970
  -0.0360773   0.9649799   0.1083443  -0.0039314   0.2138245  -0.0825462
   0.3088460   0.1214742   0.1875052   0.3929962   1.3783866  -0.1738878
   0.0365522   0.1702889   0.2711580   0.2015589  -0.8291072   0.3572189
  -0.3661070  -0.5522834   0.6804973  -0.1498046   0.0715192   0.1339169
   1.6369342   0.2785631  -0.4555200  -0.2418899  -1.0944361   0.4510004
  -0.3057517   0.3457303  -0.1776451   0.4479725   1.0980666  -0.3506005
   0.2557851   0.2540981  -1.0855789  -0.0528345  -0.0081385  -0.0545991
  -0.1659851   0.4088628   1.1695612  -0.5763010  -0.7988567   0.3310107
   0.0191241   0.2223529  -0.2409063   0.3765847  -0.8198420  -0.8304884
  -1.2492038   1.3011422   0.1352213   0.2958538   0.1950400  -0.0588638
  -0.0200926  -0.5785978   0.5015878   0.7680783  -1.1085012   0.0230480
  -0.0650911  -0.1369183  -0.0810814  -1.1625865   0.5460518  -0.8020273
   0.9996080  -0.5376897   0.2559921  -0.0447167   0.2222995   0.0779718
   0.0055249   0.6387404  -0.5404458  -0.1270605   0.3907904   0.6183574
  -0.1284585  -0.3401938  -0.2505462   0.8920392  -1.4779112  -0.7529870
  -0.5081962   0.4589484  -0.6161055   0.1746935  -0.1009462  -0.0383678
  -0.4210552  -0.5934801  -1.1777196  -0.3930598  -0.1101403  -0.0144109
  -0.0007857  -0.1333068   0.1955354   0.5074204  -0.9698933   0.1084431
  -1.0186974  -0.0983822  -0.8138817  -0.0481530  -0.1103066  -0.0612683
   0.3814408  -0.1323617   0.6649220   0.8581914   1.1376880  -0.2100296
  -0.3158548  -0.0518859  -0.2941355  -1.6189967  -1.1385296   0.4348872
  -0.1760948   1.2212094  -2.1581419   0.0953444   0.0234811  -0.2088809
   0.5625729  -1.1702950   0.2276473   1.1243190   0.1192848  -0.3982244
   0.0919615   0.3989195  -0.0456959  -0.8937162   0.4411010  -0.0123706
  -1.8602550   0.1959450   0.3264105   0.1844114   0.0781945  -0.1870157
   0.4735701   0.4553266  -0.1139298   0.2633296  -0.5563948  -0.3210931
   0.0980869   0.0088508  -0.1009390   0.5919637   0.8112622   0.2134672
   1.1024583  -0.4599401   0.3812291   0.6015962   0.6781435   0.1157400
  -0.3550433  -0.9746355  -0.5171796   0.5882431  -1.1479111   1.2856599
   0.1943129  -0.1291919  -0.2223226   1.0721152  -0.2614294  -0.8620409
  -0.0173390  -0.7719768  -0.1513472   0.0721016   0.1603198   0.0348242
  -0.3241831  -0.3512316  -0.3208902   0.1798061  -0.1823956   1.7352653
   0.0182409   0.3914334  -0.0697681  -0.3889020  -0.1681815  -0.4323797
  -0.4880336  -0.0218214  -0.6776081  -0.2444434   0.0739600  -0.3306699
   1.2458270   0.0767607  -1.3990365  -0.6817316  -0.7526587   0.6494872
  -0.0054734  -0.0001310   0.2045891   0.3263884  -0.3922795   0.8359465
  -0.1729773   0.0667167  -0.3022305  -0.0781784   0.0281345  -0.3691382
  -0.7586045  -1.4521453   0.6689519  -0.3780112   0.8215585   0.1307719
  -0.1700756   0.0423183  -0.1577934  -1.0722144  -1.4430039  -0.3218351
   0.9963666  -0.3129822  -0.8646646  -0.1036807  -0.1007704  -0.0513431
  -0.2423401   0.3932679   0.3974145   0.2997821  -0.1404782   0.0180959
   0.0998505   0.0713948  -0.4374659   1.0405977  -0.1459028   0.0127869
  -0.3067213  -0.2883551   1.3363985  -0.1497682  -0.0742283  -0.1047754
  -0.2937676   1.3578280   0.1219971  -0.4959504  -0.1007978  -0.8178285
   0.0325966  -0.0264775  -0.0392606   0.0947731  -1.6334309   0.7964523
  -0.1936793   0.6701785  -0.5926378  -0.0400066  -0.1932550   0.0857188
   0.0943288   0.9618488   0.9063641   1.0516628   2.1785321   0.2904219
  -0.0510134  -0.1749500   0.0358469  -0.5507375   2.0878399  -0.1596031
   0.3531765   0.6023398   0.2961133  -0.0774429  -0.0896339   0.1051462
  -1.4266995   0.2168348   0.2999239   1.0441808   0.7809627  -0.3580608
   0.0444442  -0.0127268   0.0166416  -0.3848935   0.7634903   0.1057367
  -0.1082180   0.8404019   2.7130795   0.0807254   0.2305566   0.0196812
   0.1796798   0.0846020  -0.4777591   0.1278416   0.2672037  -0.4843174
  -0.2996619   0.0648632  -0.2098185   0.7278714   0.5189796   0.3009038
  -1.4957281   0.5426358   0.2851536   0.3228512  -0.0177794  -0.0123038
   0.4592794  -1.2532145   0.0697323  -0.2520772   0.7759876   0.2453342
  -0.0495557   0.0156392   0.0524772  -0.9179755  -0.0123766  -0.4996141
   2.1155608  -0.6615704  -0.6769023   0.1221697  -0.1693299  -0.1432257
  -0.3913790   0.1956155  -0.7711074  -1.1990641  -0.1511354  -0.8993925
   0.0109267  -0.0364720  -0.2159785   0.3207655  -1.0288932   1.2460809
  -0.3398363   0.4196343  -0.4316346  -0.0952895  -0.4140309  -0.0646459
  -0.0713198  -0.1530216   0.9161672   0.2496533  -0.3609420   1.3816312
   0.0562093   0.0659973  -0.0940579  -2.2488161  -0.7530851   0.7355699
   0.1000628  -0.1205726  -1.8598098   0.0940435   0.0117142   0.0264647
   0.1868006  -0.5238384  -0.6442971   0.1163473   1.2303347   0.2088585
   0.0060923   0.5906166  -0.0225209   0.2558345  -0.6818292   1.7543881
  -0.5852562  -0.2099747   0.8809091   0.1326328   0.0265876   0.3744632
  -0.7467310  -0.3652632  -0.2294084  -0.8666986  -0.0837600   0.4160983
   0.3771048   0.5158652  -0.0253410   0.1314334  -0.1495603   0.2310611
  -0.3555575   1.1246864  -1.6095062  -0.2839499  -0.0357499  -0.0949604
   0.4191279   0.1083820   0.2431615  -1.3733025   0.2441982   0.0651211
  -0.1477221   0.0594931  -0.2944369  -0.3176342   0.1109650  -0.6953851
  -0.3186250   0.5245039   1.3719460  -0.1803155  -0.1783809  -0.2139119
   1.0274306  -0.7046700  -0.0751118  -0.3180911   0.9617439   0.3360126
  -0.2141154   0.1075446  -0.1019231   0.0336654  -0.5300618   1.2963121
   0.5671905   0.7020552   0.4990993   0.2437511   0.2576661   0.1470607
  -0.8526982  -0.1034985  -0.1648216  -0.6449750  -0.4023109   0.4271553
   0.0716519   0.5123298  -0.0728720   1.3266301  -0.2782014  -0.6522648
   0.6585976  -0.1966047  -1.5595168  -0.0714441  -0.0476687  -0.1289639
  -1.0939006   1.4866061   1.2876606   0.2312657  -0.1671154  -0.1340195
   0.2584552   0.1179435   0.0232009  -1.1632301   2.6011803   0.2062037
   1.7726272  -0.1863014   0.7977160   0.0050160   0.0762465   0.1168259
   0.0847411   0.2287870   0.9013538   0.8047794   0.7719360   1.5735720
   0.1763509   0.3391283  -0.0509583  -0.6853494  -1.0293970  -0.7415793
  -0.5665724   0.0177296  -0.0038742  -0.1732420   0.0366314   0.2894716
   0.1781250  -1.6842225   0.0353150  -0.4871521   0.4620097  -0.0635105
  -0.0237005  -0.1546307   0.0869146  -1.1103477   0.2592150  -1.3337591
  -0.2603144  -0.5225418   1.2475516  -0.0051595  -0.2320378   0.0317440
   0.2665295  -0.7221196   0.1978014   0.7715921   0.9578291   0.1223372
  -0.0740759  -0.0623896   0.3228845  -0.6746529   1.0363343  -0.6599593
  -0.0483111   0.3445675   1.1624809  -0.0724170  -0.1744040  -0.0233179
  -1.5898865   0.7152921   1.5542141  -0.5896489   0.8808697  -0.5739694
   0.4765726  -0.0182561  -0.1614099  -0.5511743  -0.7039082   0.8666801
  -0.5592098   1.1351936   0.2566948   0.2506623  -0.2383285   0.0451105
  -0.3269839   1.0189942  -0.8396224  -0.6109231   1.1729012  -0.3489547
  -0.2387497   0.0118903  -0.1152479  -0.3873443  -1.0601185  -0.6502799
  -0.7460011  -0.7414632  -1.0586347   0.0878126   0.1652051   0.2143581
  -0.8596958   0.3784429  -0.1913772  -0.9161564  -0.4399032  -1.2523729
  -0.0488922   0.1112560  -0.3021752  -0.9639601   0.0429776   1.5007904
  -0.3162644   0.1878376   0.1647607  -0.0900315  -0.1579770   0.2854956
   0.9899826   1.7116330  -0.9519037  -0.2266407  -1.0902450  -1.8935201
  -0.3136975   0.2047907  -0.2739202   0.0192373   0.0132670  -1.0471099
  -0.0107116  -0.7342915   1.1683404   0.0032275  -0.2619477   0.0519978
  -0.1672072   0.0227798   0.6338984   1.2756715  -0.9996009   0.5173715
   0.0398063  -0.2493854   0.2993683   0.4716153   0.0399884  -0.9557364
  -0.6004704  -0.6843518  -1.0610157   0.0219392  -0.3236901   0.3028764
  -0.3501806  -0.5596187   0.2628531  -0.7539981  -0.6537390   0.2336870
  -0.1500848   0.2854891   0.0171384   1.6097072  -0.2270708  -0.5637544
   0.3731242  -0.0014269   1.0972715   0.1191713   0.0074525   0.2253770
  -0.0432846   0.4639334  -0.4960390   1.2319221  -0.4934031   0.8525448
  -0.0671748   0.1087799  -0.0254082   0.6998275   1.4800748   0.9005145
   1.0313599  -0.4541760  -0.6255818   0.0533800   0.2355525   0.2534806
   0.4600118   0.6657709   1.1164425   0.0999111  -1.2567711  -1.0533658
   0.1513477   0.2943696  -0.0042508  -0.6062551  -0.0856369  -0.0948899
  -1.4141477  -0.9000444   0.3324618   0.1655577  -0.0393787  -0.2727483
   0.3948325  -0.4185616   1.0853797   0.3944546   0.3602852   0.7329383
   0.2976801   0.1387128  -0.3497163  -1.2335280   0.2793985  -0.6902564
   0.6692774   0.1221269   0.4259908  -0.4179377   0.0761063  -0.1778121
   0.7336571   1.5189046   0.0922436  -0.8207669   0.5100683   0.2133032
  -0.0475546  -0.3136080   0.0272005   0.3428761  -0.2335796  -0.1545091
  -0.2413932   0.9658544   0.6422669  -0.0664037  -0.1592165  -0.0252329
   0.5976831  -0.0616209  -1.2997244   0.2951995   0.2055312  -0.0275395
  -0.3340540   0.1990377  -0.1654480  -0.3395202  -1.1943407  -0.3768204
   0.6970498  -0.4050450  -0.9420319  -0.1093498   0.1178276  -0.0685187
  -1.0730387  -0.4794904  -0.0003446   0.3761756   0.5416058   2.3388711
  -0.0437477   0.4382644   0.3189835  -1.0900495  -1.1788320  -0.6349742
  -1.3183690   0.5041801  -0.5573198  -0.0933163  -0.2943887  -0.1329434
  -0.8592764  -0.5679025  -1.9554695   0.4389084   0.4613885   0.1318185
  -0.0018473   0.0139437   0.2042297  -0.0087354  -1.4746188   0.2100702
   0.3662401   0.4617284  -0.5264532  -0.1484997  -0.0691427   0.1023059
  -0.4462843  -0.0932801  -1.1037996  -0.5034861  -0.6252924  -0.8559122
  -0.0898219  -0.1694075  -0.0807299   0.8376297  -0.5486732   0.2907508
  -0.5701860  -0.4263233  -1.8365772  -0.0364262  -0.0234050   0.0815807
  -0.0073370  -0.0101233  -0.0847057   0.3457521  -1.2514607  -0.5020450
   0.1932803   0.0620082   0.1471646  -0.7895555   0.8088732  -1.1340507
  -1.3148503  -0.4276275   0.1549992   0.1782414   0.3785618   0.4067431
  -1.0738204   0.5754394  -0.2253754  -1.0904830   0.2493102   0.1771094
   0.1797761   0.1873152  -0.3093793  -0.7380696   0.4597937  -0.3260425
   2.3412054  -0.3746203   1.2394950   0.0413714   0.2462333  -0.0674277
  -0.5495674   0.6537836   0.6581796   0.9080041  -1.5460498   0.7902925
   0.1194355   0.0409534  -0.3199201   0.0630765  -0.1899519  -0.1496707
   0.1836322  -0.3289243   0.2800918  -0.0586146   0.1612456  -0.2812559
  -1.5173952  -0.9501871  -0.0299581  -0.1525468  -0.6984481   0.3399980
  -0.0824479  -0.2831743   0.0676468   0.6507566  -1.1986238  -1.2754894
  -0.0134996  -0.1922493   0.5521505   0.1779357   0.0643935   0.3092939
   0.5917299  -0.0494580  -0.9580174  -0.1212945  -0.5523746   0.8059526
   0.0561362  -0.1250407   0.0436557  -1.3609181  -1.3914515  -0.9260096
   1.0016036  -0.2751627   0.2023747   0.2761261   0.0411791  -0.0191260
  -0.9752395  -0.0236919  -0.9086508   1.2696870   0.4110150   0.2665813
   0.3343452  -0.0645920  -0.1096953  -1.3734570   0.2388726  -0.0898674
  -0.0233241   0.5856051   0.1678821  -0.3139860  -0.3601356   0.0554520
  -0.4644322  -0.5569098  -0.0546018  -1.5116224   0.8450979  -0.4676154
  -0.0212140  -0.1175499   0.0206147  -0.5854013  -0.1465310  -0.7567333
  -0.2442079  -0.2654335   0.0312907  -0.1277607   0.0124854  -0.0405407
  -0.6857793  -1.8940265  -0.0417120   0.4578700  -1.3721358  -0.0743710
   0.0280141  -0.0208950   0.3661642   0.7909334  -0.0293870  -0.2105536
   0.0895749  -0.2590017  -1.3596310   0.0614439  -0.1370601   0.2256902
  -0.7246056  -1.0173068   0.2623624   0.4825352   0.6403397   0.1203981
  -0.1174149  -0.1460841  -0.1654776   1.3956081  -0.9077815   0.9524411
  -1.4971709  -0.4136780  -0.8576480   0.0174928  -0.0205357   0.0252049
  -0.4470168   0.9944251  -0.5200348  -0.1646496  -0.8346173   0.6511775
   0.2353159  -0.0412359  -0.0367275   1.1393659  -0.1591687  -0.3592275
   0.8010979   0.2761274  -1.2963224  -0.2122238   0.1910804  -0.3680537
  -0.0230261   0.6525414  -0.0143556   0.0227947   0.3402882  -0.0815818
   0.1401068   0.1171247   0.1996609  -0.2769717   0.1390183   0.0299949
   0.7682551  -2.1171768  -0.0463497   0.3068386  -0.0968971  -0.0727299
   0.4684819  -0.0674932   0.8249342   0.3396043   0.6547446  -0.9612334
  -0.0644421   0.0465445  -0.0173912   0.7723304   0.0566596   0.9792207
  -0.7248386  -0.0381303   0.0489743   0.3053594   0.2600251  -0.4208444
  -0.4131449  -0.8748225  -0.1329594  -0.7086522  -0.3517860  -0.7260922
   0.0212888   0.0991921  -0.2174863   0.7718872   0.5457867   0.4494737
   0.5535638   0.4585296   0.4004428   0.0161411  -0.0901743  -0.0187133
   0.1253602   0.0460481   1.1719193  -0.6842222  -0.6853052   0.7252594
   0.2792725  -0.2695602   0.0236652  -0.1625443  -0.7749971  -0.0415740
   0.2064514  -0.2229206  -0.5340437   0.0429287   0.2259324  -0.1274759
  -0.0735846  -0.3804712   0.1220266   1.6692257   0.0120533  -0.8032602
  -0.1728908  -0.0239286  -0.2727879   0.7307577  -0.5296448   1.6601227
  -0.4706018  -0.4336618  -0.3745543  -0.2337536   0.3522592   0.0255150
  -0.7572628   0.1269319   0.9573813   1.3695830   0.4971603   0.3050801
  -0.1833625   0.3930473  -0.0492543   0.3336713  -0.6739762   0.1348275
   0.3474192  -0.1359763  -1.0191821  -0.1453141  -0.0781145  -0.1550310
  -0.2921245  -0.6154738   1.3616493   0.7312366  -0.1790958  -0.2656621
  -0.1461546  -0.1370667   0.1970695   0.5247377   0.5856229   0.1609217
   0.5711004   0.7073716   0.6313068   0.1825633   0.1568199   0.0982159
   0.7968685   0.1726796  -0.7596652   0.1009234   0.7512460  -1.0354488
  -0.1454281  -0.2607339   0.2076165   0.0348141  -0.0626781  -0.6451078
   0.0339001   1.2899336  -0.1805941  -0.2144241  -0.3461190  -0.0748920
   0.4687907  -0.0741618   0.5232625  -0.9277653   0.2683787  -0.4515365
  -0.0349595  -0.0688802   0.1877175   0.7427197   0.3049017   0.1702333
   0.9878486  -0.9344638  -0.8936622   0.1481742  -0.1585251  -0.0411000
   0.3039048  -0.9785436  -0.6064690   1.0488785   0.7244507  -0.4626869
  -0.0308533  -0.1052033   0.2817855  -0.0374199  -0.8086907   0.0885929
   0.3488443  -0.2750394   1.9710871  -0.0502754   0.0181179  -0.0273559
  -0.1563822   0.0617358   0.1677998  -0.2311141   0.5830127   0.6287187
   0.3626638  -0.1843738  -0.0535938  -0.1739922  -0.2231859  -1.3794339
   0.7857064   0.6895728   0.6260285   0.1811849   0.0744465  -0.0492440
  -1.4631342   0.2801891   0.7317583  -0.6296011   0.8358821   1.4850880
  -0.1737959  -0.1226365   0.0321864   0.1665107   1.3555919  -1.0400103
   0.1343198  -0.2717542  -1.0614409   0.1355824  -0.3942824  -0.0696124
   1.2385824   0.8890303  -0.1458732  -0.9183540   0.6280936   0.7599735
   0.0205169  -0.0427766   0.1438474  -0.7373775   0.4987862   0.2127386
  -1.0879114  -1.1499696  -1.1854267  -0.1944490   0.2159622  -0.6124369
  -0.7585278   0.8703583  -1.5791290  -0.5627920  -0.1172576   0.4653721
  -0.2295223  -0.1337644   0.2924143  -0.1354505  -0.3327324  -0.5067143
  -1.2487512  -0.0690252  -0.1885590  -0.0503912  -0.0420394  -0.3087814
  -0.4428060  -0.3392542  -1.8750772  -0.7374000   0.5452912   0.2232686
   0.0741589  -0.0683019   0.0274901   1.5494013  -1.1522513   0.1517806
   1.6628645   0.0641775   0.4726599   0.0839268   0.3112017   0.0562992
   1.4345899   0.4698107  -1.1225307   0.1402266  -0.8810892  -0.3808384
   0.2328684   0.1331256   0.0670676  -0.4762324   0.0092633  -0.7312977
  -1.2676984  -0.6794835  -0.4590956   0.1509226  -0.2798306   0.3280906
  -0.6563670   1.2335303   0.4598717  -0.0319503   0.2181861   0.0123537
  -0.0262414   0.1389850   0.0710922   0.2732805   0.8648568   1.2371784
  -0.0014277  -0.1073001   1.0187277   0.0622523  -0.0787060   0.0738503
   0.4937257  -0.4827210  -0.5696195   0.2330037   0.2819900  -0.0373265
  -0.3056202  -0.1306961  -0.1206248   1.5513272   0.0344360  -0.4257059
  -0.8834499  -0.4274310   0.3827095  -0.0909243   0.2424972   0.3048746
   1.3296266  -0.9924666  -0.4642354  -0.2944074  -0.1381810  -1.2863083
   0.0549186   0.1122199  -0.5008266  -0.1324476   2.2868765   0.3227117
  -0.8261250  -0.9239269  -1.0601954   0.0163066   0.1848939  -0.1241156
   0.9348871  -0.4591164  -1.6891457  -0.1699508   0.6273537   0.3729849
  -0.1656544  -0.1639671  -0.0732366  -0.1836053   0.2816106  -0.4261328
   1.1013669  -1.9385036  -0.9214019   0.0683830   0.0311140  -0.4196028
   0.6133191   0.2853592  -0.9580525   0.4893080  -2.0188017   0.8301814
   0.0762420   0.2047491   0.0261807  -0.5476678  -0.8912363   1.5509965
  -0.3269097  -0.0923679   0.2928527  -0.0178931  -0.0746993   0.1559084
   0.3976160  -0.8859822  -0.1133809   0.8490571   0.4277853  -1.8918796
  -0.3209077   0.1016322  -0.1925558   0.1277591   0.7902369  -0.3269073
  -1.8616604   0.7953425  -1.0687313   0.0625748   0.2755111  -0.1270513
  -0.6092892   0.3345598   0.3733170   1.0867273  -0.4742816  -0.2459438
   0.2333205   0.1828377   0.3149381   0.3778116  -0.0246190  -2.6803227
  -1.3887845   0.4262602   0.3588728  -0.0627644  -0.0915204  -0.0085230
   0.4461443  -0.2273455  -1.0946055  -0.1416071  -0.6231396   0.7288639
   0.1152806   0.2618851  -0.1442258  -0.9463952  -0.0528456   0.9258290
  -1.1481124  -0.3690804   0.3689650  -0.1903176   0.1694897   0.1081991
   0.8997431   0.6551255  -0.3508883  -0.0073037   0.2916704  -0.4047414
  -0.1069024   0.0872769   0.2041600  -1.9009611   0.4384226   0.5629717
  -1.6459332   0.2660571   0.6958125  -0.0763252   0.3282211  -0.2716222
   0.6340630   1.0819903  -0.1328142   0.0862346   0.7520621   0.2421848
  -0.1235171   0.1080248  -0.2141399  -0.5303918   0.0501706   0.1039433
  -0.8936908   1.1047357   0.1954066  -0.2874794   0.0241149  -0.0328600
   0.5792892   0.6262919  -0.5262423   1.3262844  -0.0434212   0.3582761
  -0.0471347  -0.2108665   0.0250744   1.5101952  -0.3907605  -0.1847629
  -0.1974242   0.3466224   1.0886821   0.2884577   0.0306909  -0.0941502
  -0.5609846   0.3915679   0.1230159  -0.3717040   0.0836131   0.8946308
  -0.2601082   0.2486802  -0.0518890   0.5963796   0.2154535  -0.3451258
   0.5580738  -0.1427616  -1.4956049  -0.1054613   0.3577724   0.1776858
   0.8443110   0.1155879   0.1867878  -1.6722464   0.2061315  -0.5026455
  -0.0613023   0.0599769   0.2211148   0.6711026  -0.1602055   0.3619294
   1.0834660  -1.6708190  -0.2603415  -0.1118188  -0.1487338   0.2803801
   0.5752420   0.7282546  -0.3713595   0.9024865   0.0221943   1.5465030
   0.3080412  -0.3016746   0.3046698   0.4022684   0.2086336  -0.0998326
   0.7523881  -0.2927967   0.4550134  -0.1280825  -0.1167010  -0.0818104
  -0.8105203  -0.2685575  -0.1313130   1.4879435   0.9830470  -1.7372658
  -0.0772216   0.0798313  -0.0480205   0.3521114   0.3618431  -0.6341142
   0.7208581   1.4145503  -0.6102842  -0.0525158  -0.2397744   0.1925569
   0.3678528  -1.1538731  -1.0334865   0.6696831  -0.2712546   1.2723486
  -0.1705194  -0.1820177  -0.2187249  -0.1441809  -0.1675574   0.6544221
  -1.8236745  -0.1356698  -0.7769400   0.0111410   0.2079465  -0.0005292
  -1.5471093  -0.2074261   0.3011352  -1.0238481  -0.3957885   0.5848755
  -0.1003954   0.1773648   0.1364156  -0.0306776  -0.2161306  -0.3911228
  -0.7502780  -0.8628233   1.0937403  -0.1056321   0.1222167   0.0595297
   0.1919453  -0.5866238  -0.4813552   0.8851574  -0.8264165   0.2738897
   0.2280184   0.1714268  -0.0041204  -0.3368598   0.0412720   0.6023066
   1.1628045  -0.4140960   1.1075904   0.0503401   0.0707683  -0.1951930
  -0.9986840  -0.8187152  -0.7251143   0.7933671   0.4413384  -0.9642267
  -0.1621091   0.3231770  -0.2213678  -1.9957785   0.7142901   0.3939704
  -0.3019517   1.3543631   1.4336194   0.0676148  -0.0312880   0.2834839
   0.1127259  -1.3675174  -0.3138579   1.0708164  -0.1538189  -0.5324600
   0.2902852   0.0572793   0.1477968   0.0789204  -0.3811241  -0.1651656
  -0.3304056   1.3817809  -0.1260362  -0.1984768   0.1474469  -0.1955560
   0.2817426  -0.6545528  -0.4022881   0.5900305   0.4581496  -0.4384471
   0.0866401  -0.1568718  -0.0684258  -1.1278689   0.0502581  -0.0744250
   2.0394520   0.6573177  -0.3823845  -0.3482725   0.0136131  -0.0276197
   0.7073676  -0.8123183  -0.1174402  -1.2619703   0.3475450   0.2558976
  -0.1183110   0.1423978  -0.1612555   1.6558857  -0.0133539  -0.6533759
  -0.8679939  -1.5260810   1.1220004   0.1625514  -0.1550908   0.1017393
  -0.7486359   0.4285818  -0.0893392   0.1542318   0.1134677  -0.6848941
   0.1371205  -0.3653362  -0.1254290   0.1951537  -0.9456403  -1.3714904
   0.2847951   1.6746967  -1.9798176   0.1422923   0.3348012  -0.0020232
  -0.1266670   0.8280229   0.4660837   0.1766527   0.2114081   0.2532428
  -0.0347100  -0.0586125   0.2724652   0.5511040   0.3870352   1.1093545
  -0.4174667   0.1874081  -0.6719316  -0.0512667   0.2469015   0.2335454
   0.4241541  -0.4897680   1.1229086  -0.0843925   1.0042899  -0.6006741
  -0.1330776   0.0037964  -0.3648650   1.0274165  -0.2800578   0.0698422
   0.0402620   0.2369365   0.0379303  -0.2509978   0.1552341  -0.1222218
   1.1719456  -0.7327604  -1.0357295  -1.8802831   0.5101179  -0.6270686
  -0.3742946   0.1339691   0.0102165   1.0131721   0.1589596  -1.3208280
   0.2016891   1.1274902  -1.8556220  -0.1618210   0.0435212  -0.2714038
   0.4214335   1.0107625  -1.2607584   0.5510935   0.4404879   0.4320399
  -0.0623903  -0.1338764   0.0684175   0.0879366   0.6648129   1.1566880
  -0.5296641   0.4388937  -0.0293811  -0.0550985  -0.0445147  -0.1528970
   1.1603029  -0.1857669  -0.1795720  -0.7004315   0.9096091  -0.6926470
   0.1246099   0.0787056  -0.0485651   0.1927317  -0.0144258  -0.7424615
   0.6465539   0.6262789  -0.0500032   0.0173514   0.1742848  -0.0042959
  -0.0869556   0.4810827  -1.3575170   1.1516697   0.3069503  -1.1189802
   0.5198810  -0.0611603   0.3129504   0.5892266   0.6258117  -0.1480229
  -0.0850782  -1.4719238   1.1099680  -0.3402717  -0.0164911  -0.1369479
   0.2780461   0.7332088   0.3464779   0.4557441   0.0312864   0.6525273
  -0.0942667   0.1092989   0.2268078   1.0560504  -0.4569405   0.2661720
  -1.6085356  -0.6483184  -0.3569491   0.0422888  -0.1533083   0.2926706
   0.2145203  -0.9754136   1.0264928  -0.1658333   0.4019915   0.2594402
  -0.4363349  -0.1562336   0.0702692  -0.5023282   0.3560156  -0.8012330
   0.3424353  -0.3876138  -0.4197815  -0.5163491  -0.0664688  -0.1040569
   0.4509100   0.4145714   1.9703163  -0.0328165  -1.2117104   0.1794280
   0.1220101  -0.0311055  -0.2223636  -0.3822400  -0.1237637   0.7907914
  -0.3847691   0.8336508   1.6385414  -0.0771935  -0.0544285  -0.0516849
   1.0678356   0.0834271   0.6751291   0.1358404   0.4580411   0.2806644
  -0.1008156  -0.0402053   0.0764365   0.7653403   0.8243665  -0.4580084
  -1.0635905   0.2501120  -0.7281558   0.5001411  -0.0958527  -0.2980702
   1.3436286  -0.5397956   0.2844750   0.1438981  -0.4240084  -0.8664519
   0.0356200   0.1923813  -0.0974225   0.9203318   0.1297162  -0.3492251
  -0.7833436  -0.2927927  -0.2301648  -0.0395858   0.0164701   0.0687260
   0.8897061   1.0191345   0.6931712   0.1322315   1.0449192  -0.6450498
   0.3272130  -0.2423162   0.2577512  -0.2157233  -0.6360419   0.7812157
   0.8160274  -0.3683512   0.3645631  -0.2110175   0.1504349  -0.0201150
  -0.0494380   0.9251850   1.4462831  -0.6814507   0.4478242   0.0310620
   0.0211951  -0.1415628   0.2928624  -0.0317902   1.8475682  -1.2291798
   0.5271051  -0.0712573  -1.3768630  -0.1571782   0.0739721   0.0738906
   0.6043130   0.2550188  -0.1517733  -0.8675719  -0.5442783  -1.2900517
   0.1653899   0.3853871   0.2367616  -0.3120287   0.2618171   0.5785559
  -0.6916258  -0.5957414   1.2883889  -0.0798470  -0.2403586  -0.0675391
   0.5814300  -1.0430912   0.4503409  -0.5177628   0.0229103   0.1338290
   0.2002381   0.1072628  -0.1065172  -0.5055927   0.9238126  -0.2593696
  -0.1788597  -1.1591313   0.6868373   0.1461730  -0.0396288   0.1300145
   0.7530306  -0.3656479   0.4726347   0.5638712  -1.7310489   0.5794595
  -0.1634360  -0.1494922  -0.0424329  -0.4292818   0.2409904  -0.1495166
  -0.6923605  -0.1684332   1.0961292   0.1268000   0.0774423  -0.0795065
  -1.8577684   1.2714102  -0.5443917  -1.0620666  -1.2485085  -0.8360918
  -0.0990962  -0.3706506  -0.2828782  -0.7153533  -0.0153958   0.0010058
   0.3845173   0.0662570  -0.1935465   0.0383635   0.2255364   0.1038655
  -1.1295509  -0.7302150   0.4196438   0.0298173  -0.9738073  -0.4720265
  -0.0114161   0.0329675  -0.0241256  -0.3053265  -1.0276651  -1.0305258
  -0.7450902  -0.0505873  -0.9537233  -0.1150901  -0.0197378   0.0156494
   1.5688673  -0.7826448  -0.2220656   0.6207121   0.8824999  -1.0396431
   0.0103639   0.0239539  -0.3741016   0.4692393  -0.4678527   0.0489702
  -0.4542410   0.3844945   0.1224074   0.1781921  -0.1842979   0.1322201
  -0.5404531   1.2340543   1.2491136   1.0638624   0.1082631   0.8955805
  -0.0155683   0.1010065  -0.0355242  -0.1194832  -0.7796718   0.5217158
   0.9196097   1.2367773   0.0499752   0.0604688  -0.1477649  -0.0610326
  -0.7578299   0.2555957  -0.8181380   0.7201082  -0.0948159   0.4167915
  -0.0139075   0.1665616  -0.1817253  -0.3674520  -1.1387433   0.0152600
  -2.3329165   0.1343519   1.0327544  -0.1740693  -0.0090319  -0.1307402
   0.5513553   0.1224056  -0.4884445   0.0983245  -0.1830221   1.1620721
   0.0266916  -0.3191203  -0.3400664   0.6176481   0.6016519  -0.9275557
   1.8874251   0.4973367   0.3458892  -0.1349364  -0.0911183  -0.2048258
  -0.3922020  -0.0694563   1.3276868   0.2605568   1.0318792  -0.4753442
   0.2617947   0.1161497  -0.2972453   0.0251983  -0.8584526  -0.8110599
   0.7713010  -0.6599542   0.4451108   0.2153076   0.1799111   0.1959168
  -0.4421825   0.3555376   0.3095733  -1.1101391  -1.5652782  -0.0030407
   0.2668181   0.2525154   0.1735631  -0.5225260   0.3442750   0.1581727
  -0.0854635  -0.5149912  -0.3623157   0.0453565  -0.1714348  -0.1586179
  -0.9296534   0.9799796   0.6580375  -0.0642074  -0.9484804   0.6822126
  -0.1988378   0.4580506   0.0761288  -0.9310589  -0.1821563  -0.3908819
  -0.6006023  -1.5747684   0.2950957  -0.0340812  -0.0499970   0.0200982
   0.7045408   0.3992534   0.7465875   0.5564151   0.8521639   1.2815606
  -0.0793008   0.2199721  -0.1130365  -1.0598871  -1.1613034   0.1563844
  -0.1257775   0.9770051   0.1416615   0.3904125  -0.2882055  -0.2768314
   0.2368040   0.2005149   0.3146227  -1.6340536  -0.2571517   0.7493148
  -0.3108394  -0.0928384  -0.2096812   0.0024555   0.2540074  -0.7883134
   0.7283055  -1.7115705   0.2559348  -0.1832724  -0.2202452  -0.0857284
  -0.6238675   0.8693908   0.9294734  -0.4204397   0.1016381   0.3716318
   0.1561815  -0.2526566  -0.2052525   1.0634314  -0.3920304  -0.4785181
  -0.3549799  -0.2172122   0.9937661   0.1864805  -0.1882193   0.2883151
  -0.6260922  -0.8232900   0.0493753   0.6401122   0.4356702   0.0862884
   0.1756641  -0.0978330   0.0555407  -0.5318991   0.3818123   0.7074124
   0.9041045   0.3829652  -1.9338348   0.2212588   0.1380558   0.0659913
   0.1841208  -0.2317165  -0.2748363   1.0187763  -0.8269379  -0.7619907
   0.0195900  -0.0907566   0.0693480  -0.3603260   0.0576183   0.9952645
  -0.1162101  -0.0986712   0.1681084   0.0202272   0.1916344  -0.0566055
  -0.8419590  -0.3935124   0.1477182   1.1422666   0.7577498   0.4555423
  -0.0679697   0.0246528  -0.1660111  -0.3814373  -1.9450263   0.6449865
   0.5561967   1.4763041   1.4658113   0.0479693   0.0750167   0.1102899
  -0.2397648   0.8627652  -1.5524104  -0.3622585  -0.8587696   0.3910658
   0.2952947  -0.1431332   0.2492673   1.0501736  -0.0075255  -0.9230187
  -0.3444268  -0.6502720   1.1197512   0.4490231  -0.3172319  -0.0475692
  -0.0814793   0.7391184  -1.2694046  -0.5672893   0.2661746  -0.7620024
  -0.1701680   0.0308574  -0.2998801  -0.7104863  -1.2066009   0.9264443
  -0.5168062  -0.4449623   1.5190854   0.1747036   0.0875549  -0.1594595
   0.0443855  -0.3028864  -1.0122260  -0.0325875   0.3998508  -0.7422593
   0.0824996  -0.0513312  -0.0884593   0.4464589   0.0284807   0.3486032
   0.0964978   0.7712387   0.7182756   0.0448098  -0.0530985  -0.0412049
  -0.6413537   0.2734085  -0.5503419   0.1670664   0.0207009  -0.5218530
   0.1975893   0.0896319  -0.0253570   1.1444292   0.3992352   1.4653078
  -0.1148387   1.0338243   1.3197369  -0.0964057   0.0824045   0.2718272
   0.0332686   1.1075844   1.0935240  -1.2082259  -0.9402258   0.0509801
   0.2188675   0.0405210  -0.0553947  -0.2672508  -0.6276711   0.6946590
  -1.6385076  -0.0849017   0.2698440  -0.2014017   0.0875009   0.3176084
  -2.0132180  -0.4605151   0.6539621   0.5778071  -0.0949463   0.3590988
   0.1766753   0.2932882  -0.1774098  -1.1022865   0.3296057   0.0129469
   0.0332436  -0.5137867  -0.1588410  -0.2122353  -0.1314356   0.0126408
  -1.3090956  -0.2945844  -0.3673076   0.7393790   1.4157044  -0.4059343
  -0.0090781   0.2609998   0.1841475  -1.6037685  -0.2077536   1.0048596
   0.5741404   0.0605271   0.6655370   0.4720060  -0.4822843   0.0234794
  -0.5348081  -1.3640760   0.1907520   0.6356625  -0.8875961   0.9179446
  -0.0111191   0.0948937   0.0840205   0.3930092  -1.5257701  -0.5471556
   0.4096007   1.1674570   0.0585140  -0.1378832   0.2238052  -0.0149200
   0.8844627  -0.3319197   0.4440343   0.5658432  -0.0964322  -0.4180052
  -0.1957141  -0.2443094   0.3546397   0.6662620  -0.3723650   0.2066463
   0.6865684  -0.8555080  -1.1740008  -0.1652022   0.4398635  -0.2017176
   0.6050886   0.1197155   0.7704651   0.1431290   1.2537070  -0.3798686
  -0.1028213   0.2229572   0.0092943  -0.7285939  -0.6648851  -0.6287663
  -0.3727608  -0.6845414   0.4859018   0.2561465  -0.1545715  -0.3738646
  -1.5277899  -0.1162369  -0.0514042   0.8979826  -0.3028884  -0.0478101
  -0.3181175   0.0083473   0.3023224   1.3479314  -0.5733411   0.0637727
   0.7530707   0.2012964   0.4794470   0.2346396   0.0677818   0.2041086
   0.0770074  -0.5974803   0.1022132  -1.1246573  -0.1988890  -0.0490709
  -0.1241938   0.0626737  -0.1503994  -1.4882586   1.0109594  -0.4958984
   1.0603605   0.1171479   1.1544407  -0.1384577   0.1286934  -0.0952823
  -0.6551364   0.4746232  -0.6533432   0.6943703  -1.1212680   0.6864025
   0.2023798  -0.0716318   0.2242138  -1.4056400   0.5414988  -0.8420224
  -0.6060563  -0.7543879  -1.6998741  -0.0460737   0.2729348   0.0603371
   0.0896056  -0.6844807  -0.7922886   0.7305981   1.3549916   0.2978391
   0.1320610  -0.0220252   0.2324128  -0.3402739   0.0329040  -0.9270846
   0.1607459   0.9946897  -1.1912233  -0.3297156   0.0592942  -0.1072214
  -0.2319764  -0.9465933   1.5002206   0.1210739  -0.7586281  -1.5006591
   0.0349273  -0.1476802  -0.2870902  -0.3218706   0.5077269   0.2602489
  -0.1632002   0.4812858  -0.0634140  -0.0050128   0.1928448  -0.1004764
   1.3312694   1.4280227   0.8471114  -0.5455217  -1.4869362  -0.5212155
  -0.5329790   0.0894627   0.4738567  -1.3380729  -0.1376996   0.0245338
  -1.8061376   1.4606135  -0.3995745   0.0059586  -0.1058711  -0.0374985
  -0.4453350   0.7046990   0.9014190   0.2499209   0.3124355  -0.5199900
  -0.0491877  -0.0849491   0.0804134  -0.3140145  -0.8958294  -0.8459931
   1.2862006   1.2759146  -0.1652683   0.1058439   0.2325152  -0.0671383
  -0.0744090  -1.0697625  -0.0480546   1.2319163  -1.5031100   1.2251937
  -0.2770971   0.0548627  -0.0396923  -0.6374602   0.8435279   1.3253775
  -0.8452380   0.1144658   1.4355699  -0.0776076   0.0871605  -0.0645100
  -0.2480356  -0.3619772  -1.1000552  -0.4952655   0.3227759   0.3725830
   0.1980765   0.0489154  -0.1147037  -1.2029016   0.0417637  -0.3741026
  -0.4836579  -0.4884540  -0.8724571   0.0320767   0.0115971   0.1598942
   0.6670945   0.4935422  -0.8793674   0.1238303  -0.5250796   1.2209310
   0.0862273  -0.0603554  -0.0281925  -0.6678135  -0.4381620   1.3538106
   1.9901985   0.0137997  -0.6046583  -0.0531572  -0.1499852  -0.0490686
  -0.7648909   1.1487056   0.1922756  -0.8944167   0.0597207   0.7256570
   0.3333482  -0.0943118  -0.0167705   0.5829460   0.1624743   0.6484518
  -0.6354149   0.0350098  -0.3210686  -0.0073782   0.1658696  -0.2262237
   0.3354566  -0.9894569  -0.6244951  -0.9737928   0.5344349   0.5812218
   0.1522871  -0.0778604  -0.1720891  -0.2769498  -0.1803416  -0.2376390
  -0.2589352  -1.7371395   0.5445371   0.2127529   0.0553235  -0.3586091
   0.2591819  -0.1036740   0.0027145  -0.2219841   0.6317380   1.4512737
   0.0193484   0.1186596  -0.2848595   0.1535137   0.1059552   0.0220977
  -0.3743914  -1.6464435   1.2939541  -0.2571338   0.0846241   0.3535947
   0.5877085   1.0990447   0.5806248  -0.1952470   0.7478446   1.1323517
  -0.0422286  -0.2587798  -0.0134109  -0.2029972   0.0710651   0.6336473
  -0.5105624  -0.2429017  -0.4416715   0.4401178   0.0839099   0.2003337
  -0.1850602   0.7222357   0.3640950  -0.6691886  -0.3391886  -0.4418723
  -0.1077402  -0.1717161   0.0916212  -0.1917303  -1.7175869   0.3716296
  -0.4525605  -0.8027074  -0.0040632   0.0651781   0.1149800   0.0630140
   1.3275670  -0.2276373  -0.1113300  -0.8834163  -0.1707623   1.1424989
  -0.0287913   0.0137839   0.0930741   0.0201404   1.1098049   0.4079250
  -0.3469767   0.1953804   0.4781526   0.0661862   0.0667226  -0.0452173
   0.4080564   0.1582196  -0.8608513   1.1610822   1.3351868   0.5513699
  -0.0666767  -0.1309244  -0.2018927  -1.4230865   0.1873313  -1.0250169
   0.7737913  -0.5758003  -0.1326149   0.3792499  -0.1101843  -0.0808243
  -0.0126648  -1.0226110   0.5723149   1.2906980   0.7981036  -0.9653787
  -0.1066980  -0.0521565  -0.3202239   0.2565737  -0.5100539  -0.7455421
   1.1580685  -1.0340184   0.4765375  -0.0112498   0.3408989  -0.0225370
  -1.3789386  -0.0090977  -1.5222794   0.1735266  -0.1272378  -1.1915078
   0.3093727   0.3963051   0.0351893  -0.2710312   1.1564139  -0.1951272
   0.1843767  -0.0448593   0.0236909  -0.1313293  -0.0266674   0.1834919
   0.3456154  -0.8982463  -0.4596312  -1.2497383  -0.2692421   0.1361242
   0.1971174   0.0958612   0.1021467  -1.1836779   0.7903032   0.3985616
   0.9150882   0.5703516  -0.1729962  -0.1527018   0.1856666  -0.1556364
  -0.7049246   0.8411621   0.4704390   0.2599130   0.0051819  -0.1685941
  -0.1283911  -0.1440127   0.0906091   1.1175015  -1.0311997  -0.3724233
  -0.6149046   0.6352223  -0.3575415   0.0146815  -0.0201560  -0.0910128
   0.7116276   0.5755806   1.7033667   0.8185018  -0.5157999  -2.5100920
  -0.2370383  -0.1500067  -0.0332966   0.2147059   1.0185783  -0.6743844
   0.0051449   0.7308946  -0.1991738  -0.0874251  -0.1960117  -0.0387710
  -1.1325790  -0.0606333   0.1610892  -0.0293262  -0.8323209  -0.0021588
  -0.3075974   0.2008876  -0.3492768  -0.3438879   0.6390192  -1.2015358
  -0.7736566  -1.5746179  -0.8836045  -0.0018698   0.1040780   0.0063261
   0.3546929   0.3449524  -0.0467435  -0.0625111  -0.7840702   0.1044041
   0.1214410   0.3010908   0.2292968  -0.9832614   0.2955510   0.5165760
   0.0335873  -0.5373237  -0.5598858   0.1826539  -0.0600476  -0.0542151
  -0.6175979  -1.2365582  -0.3611712  -0.3434867   0.5644207   0.4498881
   0.0280207   0.0772152  -0.2758472   0.4371657   0.1014739   0.0956376
  -1.0025080  -0.0681065  -0.6136677  -0.0622535   0.0665049   0.1980239
   0.5051523   0.2440935   0.1981737   1.0625675   0.1355746   0.3294607
  -0.1297288  -0.4868414   0.2363113   0.3913633   1.0422784   0.5234149
  -0.4972263   0.7555676   1.2390787  -0.1596596  -0.2278921   0.0608312
  -0.3897494  -1.6199577   0.3221714  -1.1792940  -0.7586058   0.0921171
   0.5213398  -0.2591950  -0.2456986  -0.6701323   0.7004460  -0.2275443
   0.3748873   0.1620743  -0.2928976   0.4365024   0.1238171   0.2044386
  -0.7105031   1.0450124   0.0617438   0.2248572  -0.2916227   0.2374757
  -0.2608728   0.0801290   0.1825799   0.6061742  -0.4518579  -1.9164497
   0.5865138   0.0013259  -0.8360995  -0.2474713   0.2931944   0.0885036
  -0.8415274  -0.5802889   1.9681590  -1.4199070   1.4730957  -0.2369999
  -0.2388867  -0.0567409   0.2869324  -0.3023092  -0.0172929   0.6694496
  -0.1078464   0.1309415   0.2657179  -0.0090280  -0.2536508   0.0114771
   0.4017964   1.0477942  -0.0975403  -1.3610177  -0.8176451   0.0449813
  -0.0525688  -0.1337223  -0.0913197  -0.4981343  -0.0323154  -0.1613576
  -0.3899111  -0.1300472   0.3293991   0.0531679   0.3704686  -0.2856365
  -2.3703497   0.1579397  -0.5976971  -0.7784880   0.0517428   0.3248587
  -0.1559145   0.0917539   0.0526931   0.2159853  -0.5405942   0.2581343
   1.0366690   1.3944233   0.4825311   0.0558643  -0.0078295  -0.0182613
   0.8060404  -0.3498159  -0.6878573  -0.0055258   0.3755320   0.1210821
   0.0096150   0.0386235  -0.1550038  -1.7416528   1.5532980   0.6073529
   1.3246596  -0.0157473  -0.7914226  -0.0748526   0.1351660  -0.0057277
   0.3929324   0.9578577   0.3099243  -0.3328098  -0.5593607  -0.7843035
  -0.4673310  -0.1087992   0.1879732   1.2239922   0.4234525  -0.1820679
  -0.5441803   1.9484972  -0.7880048  -0.0609403  -0.0840267  -0.3047166
  -0.4942304  -0.3552828   0.3542636   0.3389787  -0.2457701   0.6590478
   0.0575915  -0.0622353  -0.1065798  -0.7732964   0.3887729  -0.8459589
   2.2889710  -0.0202868   0.1546648  -0.0376152   0.0957222  -0.0081678
   0.6116622  -1.2267491  -0.0060629   0.8145440  -0.3195020  -0.2164109
   0.0011660   0.0955932   0.2322997  -0.8455704  -1.8748228   0.1370230
  -0.3378194   0.5166615   0.0580181  -0.1360918  -0.1126258  -0.0909603
   0.2242630   0.0289324   0.3567432   0.1273621   1.5633799  -0.2152584
  -0.1175638  -0.0458949  -0.0195779   0.5886892   0.3513424  -0.4574283
  -0.7192380  -0.5410798  -0.5301371  -0.0294208  -0.0700351   0.0977722
  -0.0621477  -0.1706880   0.1273448  -0.5429939  -0.2191437  -0.8876378
  -0.2880763   0.0284186  -0.1428776   0.5815868  -0.0376729  -0.5203937
  -0.7605039  -0.1948627   0.7121887  -0.1564746  -0.0190285  -0.1028762
   0.9526275  -0.5997281  -0.0949802  -0.2303261  -0.5620337   0.7557027
   0.1966857  -0.0976985   0.2016151  -0.8632615  -0.1424688   0.4300057
   0.0133329   0.1543817   1.6350406  -0.1759954  -0.2237441   0.0211221
  -0.7445365  -0.7657562   0.7840772   1.1219620   0.6536621  -0.4884192
  -0.1727684   0.2530790   0.0433261  -1.3159758  -0.5304247  -0.9406488
  -1.0205110  -0.1164793   0.2560593  -0.0589539   0.3224583  -0.1053681
  -0.0200921  -1.2881333  -0.1450999   0.1399420   0.8368135   0.0254652
  -0.2137146   0.2691170   0.2852211  -0.0365253  -0.6830675  -0.4409704
   0.7170078   1.5993895  -1.2486189  -0.2297868  -0.3205688   0.2623572
  -0.2675426   0.6964913  -0.1654956  -1.5391290  -0.2411672   0.5649291
  -0.0861001  -0.0114701  -0.1474977   0.1222405  -0.1706244  -0.2153409
  -0.2761035  -0.0605636  -0.9150973   0.0919551   0.1103468   0.3164451
   0.0225243  -0.4994783  -0.0018532   1.3630316  -0.0608869  -1.0150159
   0.4038548   0.1591523  -0.1246028  -0.3979984   0.0536828   0.1319956
   0.3150976   0.5937980   0.1511803  -0.0442036   0.0470005   0.3398325
   0.6169722  -1.1130660  -0.4438406  -0.1787648   0.3876152  -0.8875218
  -0.1391332  -0.2612850   0.1225113  -0.3395966   0.6507682  -0.9886950
   0.1050520  -0.6198521   0.7084692   0.2316469  -0.0098561  -0.0708238
  -0.0608971   0.0438278   0.2385393  -1.6068509   0.4014573   1.4927186
   0.3174636  -0.1312713   0.1668005   0.6483678   1.2645305   0.4217663
  -0.3182549  -0.2140085  -0.6907950  -0.1525568  -0.0369326  -0.0798206
  -0.5813160   0.2964040   0.2938631   0.9577361   1.1599435  -0.2754153
  -0.2060550   0.1785080  -0.0536840   1.2772290  -0.0535023  -0.8977105
  -0.9242568  -1.6290796  -1.3864668  -0.1646256  -0.0624232  -0.4595835
   0.5675312   0.7800402   0.7318470  -1.1554156   0.7120030  -0.7668749
  -0.1298952  -0.2572717   0.0632549   0.8039089  -0.3453107   0.3444613
   0.6271627   0.4511639   0.3292414  -0.0789897   0.2692899  -0.1432347
   1.6695981  -0.4092672   0.4957136  -1.1109227   0.9589338   1.4747159
   0.0326078  -0.0958800  -0.0207357  -0.0329325  -0.9051920  -0.8774710
  -0.5002289   0.8884447   0.0820126   0.0816320  -0.2390663   0.1799743
   0.6305589  -0.1458649   1.6681833   0.2765418   0.3183040   1.3831686
  -0.0531173  -0.0833690   0.0752932  -0.7567177  -0.3580445   0.7565273
  -0.6065206  -0.2498972  -1.1774229   0.2966256   0.2662408  -0.0013039
  -0.3248413  -0.6445777   0.2078919   0.6703159  -0.0371960   1.0334373
  -0.0325546  -0.1385516  -0.2467485   0.5251428  -1.0176763   0.2436155
  -0.7676790  -1.5091410  -1.0312768  -0.0094359   0.1394068  -0.0390613
   0.4356062   0.6568318  -0.7623428  -1.0808361   0.7724398  -0.4274056
   0.3921119   0.3957528   0.1346944  -0.2632910  -0.6541578   0.7591113
   0.3512843  -0.6727206  -1.6843868   0.0390353  -0.0116888  -0.1939652
  -0.4896581  -0.4212620   0.6805073  -0.7822311  -0.0758245  -0.4620000
  -0.0344493  -0.0477622  -0.1390395  -0.5546592  -0.7895487   0.8256241
   0.4371532  -0.5043371   0.9446765  -0.0981254  -0.0686978   0.1340031
   0.7515346  -0.1409310  -0.2928809   1.4812821   0.8878553  -0.5350860
  -0.2245336  -0.0527166   0.0591183   1.0440779   0.7135707   0.6062535
   0.3775996  -0.3900943   0.9843372  -0.1044711  -0.4390250   0.1602234
  -0.3935469  -0.4334930   1.7316898  -0.5026863  -0.2452838   0.1199538
  -0.1846916   0.2505357  -0.0801938  -0.3997350   0.3086832  -0.1584930
   0.0051934   1.0169402   1.2870100  -0.2029281   0.3948270  -0.0261682
   0.4066665  -0.9996825  -0.5319482  -0.3959966  -0.6060497   0.6360556
   0.3591704   0.0060698  -0.0141931  -0.9942542   0.9286330  -0.0696238
  -1.3862836  -0.0732001  -0.0457826  -0.1070711  -0.0870423   0.0244103
   0.8972778  -0.6262150  -0.0604652  -0.1100145  -0.3007672   0.5926610
  -0.2375393  -0.3607590  -0.1332515   0.2590562  -1.4326125   0.3014793
  -0.2866254   0.1656535  -0.6431475  -0.1670149   0.1149380   0.0343828
  -0.9274763  -0.3975578   0.5048015  -1.0430313   0.1538472   0.4708632
   0.2480984  -0.0112041   0.4917734   0.3056656  -0.1658266   0.7985950
  -0.0680530  -0.2990272  -0.4474191   0.1961586   0.4641954  -0.0718210
  -0.2939451   0.7579789  -0.3667532   0.3366317  -0.9998698  -0.6850025
  -0.0847914  -0.2021294   0.0951136   0.5926012  -0.4117059  -1.2084624
  -0.5547104  -0.2508597   0.7253416   0.2038852  -0.0762468   0.1889666
   1.9419836   2.1800079  -0.7207689   0.6473094   0.0621260   0.2448394
   0.2798149   0.0344122   0.2288993  -0.8928980   0.3869645  -0.4740549
   0.4116743   0.3704503   0.8048661  -0.0274990   0.0881786   0.2102065
   1.4454892  -0.4584842  -0.8530642  -0.9573952   0.5192081  -0.9147011
  -0.2117275  -0.1262535   0.2149478   0.0676856  -0.1170364  -0.6433374
  -0.2095525   1.0227772   0.4851949  -0.1768133   0.2133677  -0.2740181
   0.3655127  -0.0343415   0.3315324   0.3566247   1.2452399   0.3765791
  -0.0794122   0.1961550  -0.1126445   0.9214801   1.7339952   0.2189505
  -0.9965572   0.6351927  -0.0889284  -0.2854903   0.0679014  -0.0362639
  -1.3518530  -0.5931859   0.4655852   0.8986372   0.5115893   0.0579700
   0.4428631   0.0791751  -0.1174069   0.7570331  -0.9185514  -1.3632152
  -0.3457736   0.5801595  -0.0042501   0.0790635   0.3755692  -0.0797369
   0.0454905   0.6456446   1.5583305  -1.3547207   0.8021382  -0.6059738
   0.2065032  -0.0105757  -0.0049036   0.0542042  -0.7614752   0.2883957
  -0.3862308  -0.2893691  -0.2065209   0.2478669  -0.3440247   0.1469861
   0.6953049   0.0449674   0.8655251   0.3485910   1.0912208  -0.1576111
  -0.0390376  -0.3117038   0.0377635   2.0989800  -0.5767555   0.5223675
  -1.1850554  -0.2396989  -0.9866561   0.0358889  -0.3468881  -0.3946599
   0.0402358  -0.4766881  -0.2849870  -0.0946242   0.1088482   1.5355749
  -0.0262521  -0.0809854   0.4235956   0.0260515   0.8012002  -1.0357523
   0.6726672  -1.9489008  -0.4091370  -0.4468179   0.1374142  -0.4781836
  -0.4817901   0.0868145   0.3025873   0.8862522  -0.2591953  -0.5541515
  -0.0838946  -0.0513275  -0.1051204   0.7035981  -0.5395503  -0.3683508
   0.2422606  -0.0546915   1.4866574  -0.0315221  -0.3852974  -0.0375989
  -1.5337553   0.3258114   1.5038127  -0.1495180  -1.1717714   0.8214959
  -0.1870707  -0.2209839  -0.1746148   0.7110171   0.6545287   0.5806613
   0.9179803  -0.0547940   1.5805178   0.0922508  -0.2200275  -0.0405535
   0.2951836  -0.2253100   0.0455056  -0.6512499   1.2892076  -0.0026541
   0.1217321   0.0611293  -0.0446387  -0.8287196  -1.1079987  -0.2678156
  -0.6730996  -0.8594257  -0.6799998  -0.0997988  -0.0087102   0.0542633
  -1.3898820   1.0085329  -0.4145267  -0.0254023  -0.8068887   0.4714096
   0.0208530   0.0222139  -0.0850799   0.7700162   0.2216826  -1.4878947
   0.9981499  -0.2762228   0.0929290  -0.1518094   0.1859754  -0.1059869
  -0.3045297   0.4154728   0.6358159  -0.5148531   0.4729124   0.4943210
   0.0208178  -0.0319109   0.0759973  -0.1944153   0.4266820   0.2912188
   0.2872739  -0.7972141   0.1392887  -0.1017508   0.1434525  -0.2981846
  -0.2838614  -0.8760589  -0.7946751   1.5997588  -2.1142530   0.3154177
  -0.0796200  -0.1753056  -0.1416555  -0.3688161  -0.4040137   0.3101683
   0.5985967  -0.6893033  -0.1659381   0.2001036   0.1273645   0.3639661
   0.1363209   0.1098222  -0.4548897   1.0460097  -0.0241708   0.1682987
   0.0393780  -0.2329788   0.2885245   0.1423527   0.1195447  -0.6850969
  -0.5644789  -1.0660539  -0.1178767   0.1901566   0.0351734  -0.1990070
   0.3605796   0.1601739  -0.2849074   0.0919807  -1.6887817  -1.1005470
  -0.0323522   0.1049456   0.2580721  -1.1562333   0.1418661   0.2947498
  -1.0914528   0.0547888  -0.8507507  -0.0549569  -0.3648229  -0.0948324
  -0.1868156   0.5366336   0.9821856  -2.0102206  -1.1190859   0.2081943
  -0.1973843   0.1221903   0.0775979   0.0236454  -1.0846645  -0.2777100
   1.4777173  -0.0445587  -0.7720364   0.1041595  -0.0209740   0.2321756
   1.7498110   0.4529668   0.6259461  -1.1614619   0.3809152   1.8866765
   0.2894524  -0.3249831  -0.1914931   0.0830120  -0.4732243   0.2425430
  -0.2414158   0.2882873   0.4142180   0.1655076  -0.2185312  -0.1159049
  -0.3002324  -0.2798028   0.4010117   0.1365136   1.6241335   0.1899129
   0.0277182  -0.2107073   0.0246495   0.3160656  -0.1227034  -0.6698367
   0.7749185  -0.3938517  -0.3660810   0.1263011  -0.0866195  -0.1880536
   1.0722732   0.6093306   0.7625786  -0.6587775   0.1563867  -0.4391796
  -0.3081703  -0.1009834  -0.0595014  -0.6202298   0.6209606  -1.6493259
  -0.5284446  -1.0697853  -0.4914505   0.1055896  -0.1700302  -0.2238466
   1.2452919   1.1115044   0.3589203   0.3975340   0.4087022   0.0093939
   0.1265464  -0.2081535   0.1005663  -0.4191548   0.2986524  -0.6111778
   0.7600328   0.1635384   0.8384875   0.0431041  -0.1044882  -0.0295306
   1.5740174   0.9723422  -0.6077926   0.0111800   0.1446257  -0.7422016
  -0.0470396   0.0157917   0.0440984   0.4582486   0.2940334  -0.1822750
  -0.2685516   0.8573463   0.2387033   0.2184873   0.0150542   0.1685544
   0.3040387   0.0152937   0.6655350   0.6491203   0.5482826   0.3098663
   0.3712245   0.3611958  -0.1726991   1.1365116   0.5878783   0.4711372
   0.2759441  -0.9310820  -1.2424316   0.2144919  -0.0150161  -0.2956107
   1.7303017   1.1409250   0.0176297  -0.7007744   0.8311805   0.0940528
   0.0495154  -0.0521726   0.0489222  -0.7003824  -0.6228419   0.8597391
  -0.6677846   0.1140217   1.0421169  -0.2752232   0.2415256  -0.0526011
  -0.1461551   0.9175372  -1.0177693   0.6982326  -0.8953432   0.0388022
   0.0138668  -0.0371158  -0.4728741  -0.8633261   0.3015621  -0.2483573
   0.1612103   0.0159665  -1.6726333  -0.0682317  -0.2015904   0.0703911
  -0.0249871   1.9336933  -0.3068891   1.2401226   0.0866721  -0.2117531
  -0.2104372  -0.2527209   0.1497847  -0.0135495  -0.0716599  -0.6739978
  -0.9452482   0.3513969   0.3468129   0.0807708   0.0965698   0.0539865
   0.1551453   1.9580632  -1.6319589  -0.5181676  -0.0808789   0.1024028
   0.1962122   0.3525907  -0.0719273   0.6092687   1.4482849   0.3618343
  -1.2347438   0.1976030   1.3568563  -0.0200093  -0.3258901  -0.1346038
  -1.2353762   0.3031616  -1.3300962   0.3277231   0.3343103  -0.4508366
   0.2175118   0.2190437   0.2698079   0.0940808  -0.2096661   0.0361888
   0.5433031  -0.0587454  -1.9326867  -0.2228751  -0.0703868  -0.0750827
  -0.3320747  -0.1289299   0.3546994  -0.1234962  -0.5699516   0.8700081
  -0.2317084  -0.3115850   0.0594504   0.2012509  -1.3025608   0.2555389
   0.6859395  -0.9080653  -0.9730714   0.2919288  -0.1276165   0.1786873
  -0.6719945   1.3357224   0.7178604   1.3485731  -0.6247644   0.1163187
   0.0941709   0.0940071  -0.3117316   0.8424858  -0.8240321  -0.4402334
   1.0048962   0.6517272  -0.2347827  -0.1379390   0.3630297  -0.3588091
   0.6314737   0.5828500   0.1554338   0.7861309  -0.1305550  -1.3114822
  -0.0287633  -0.0206576   0.1660534   0.0003691  -1.0147693   0.5245593
  -0.4411444  -0.6319378   0.3786284  -0.1452071  -0.0166852   0.0313336
  -1.0784645   0.7884343   0.2557629   0.1543653  -0.4918268  -1.1279754
  -0.1553348  -0.1871393  -0.3449125   0.4209669  -0.4843497   0.0530248
   1.0623200   0.2202627  -0.3277702  -0.1249361   0.1550266   0.0609061
   0.1706719   0.1814084   1.3560456  -0.5628258  -0.7877468  -0.0712575
   0.0151756   0.2290774  -0.2836499  -0.7191216  -0.1992187   1.2199246
   0.2061517  -1.2526537  -0.8224623  -0.2138807   0.0546952   0.1918169
   0.3422527  -0.8808529  -0.7251525  -0.2287193  -0.2027369   0.4823953
  -0.0507329  -0.1604536   0.1238506  -0.0618600  -0.4012619   0.0645898
   0.3329813   1.1395609   0.0400736   0.2663482   0.0146662  -0.1585351
  -1.7041937   0.4937995   0.3922413   0.6111930  -0.6052481  -0.2837140
   0.1281874  -0.1197565   0.0933817   0.2618154   0.0469332  -0.3309494
   0.2204137  -0.2028698   1.1494334  -0.0916285  -0.2372602   0.0261171
   0.8711018  -0.9905836  -1.6826094  -1.2397132  -0.9322735  -0.0376864
  -0.0000625  -0.2619969   0.1080312  -1.7867129  -0.5819119   0.2375563
   0.1045466  -0.5229685   0.2490236  -0.1798766   0.0433351  -0.1374904
   0.7305140  -0.4367088  -0.3985736   1.2382911  -1.3680603  -0.7629640
  -0.1332619  -0.1099413  -0.3817733  -0.2981600  -0.4167789   0.0842846
  -1.2790398   1.0038317   0.2923935  -0.2744092  -0.0319291  -0.2298450
  -0.4770179  -0.0684755   1.6158948   0.0379377  -0.4627221   0.7529471
   0.3207813  -0.1559214  -0.0141251   0.9425517   0.2209905   0.2670405
  -0.7533738  -0.5938557  -0.4444113  -0.1314925  -0.0213626   0.0774123
   0.2809561  -0.3361491   0.0617342  -0.5566584  -1.8145669   0.3607322
   0.0374999  -0.0753624  -0.0415407   1.4142132  -0.8068588   0.8293587
   0.4404445   1.3786447   0.0635055   0.0014368  -0.0823744   0.1271012
   1.3029107  -0.2307275  -0.1047637   0.4990997  -0.7336397  -0.8296419
   0.1995036  -0.1030928  -0.0823484   1.0438179   0.3646393   0.5385999
  -0.4457520   0.0317538  -0.1501148  -0.1913910   0.1652734  -0.1478006
   0.0336104   0.7046148  -0.2174417  -0.9050599   0.6495640   0.6953109
  -0.2372614   0.0832743   0.3958275   0.3223412  -0.5394820  -1.0685645
  -0.9086315   0.4522386  -0.0777358  -0.4412106  -0.1379020   0.1805411
  -0.6737706  -0.8109912  -0.4786224   0.0146198  -1.0879249   1.8263391
  -0.0058070  -0.1256404   0.0512235  -0.7454314   0.8337816   0.1228111
  -0.9864674  -0.5351376   0.3721019  -0.0329465  -0.1822800   0.0928120
   1.3847788   0.4939123   0.5334461   0.9331259  -0.2324957   0.5658803
  -0.3001306  -0.1365044  -0.1334627   0.9886340  -0.7999247   0.2289347
  -0.3744749   0.3558647   1.2693626   0.1008107  -0.2515836   0.3697428
   0.8614025  -0.3458401  -0.9447552  -0.7053693   0.7450989  -0.4189112
   0.0936839  -0.0509482  -0.0170581  -0.4835490   0.0716912   1.0045200
   1.8978277   0.4183625   0.4416074  -0.1960577   0.0935998  -0.0930207
   0.0316168  -1.0184343   1.3694771   1.4619058   0.2039457   0.0756330
   0.2220536  -0.1503412  -0.0263744   0.0611867   0.1246642   0.7252870
  -0.4429430   0.1362216  -0.3754576   0.0566966   0.0566329   0.1462371
  -0.4568059   0.8096164   1.1767635   0.0491017  -1.3440915  -0.0509760
  -0.0180058   0.1771963   0.2744361  -0.6569924   0.7477712   0.6269933
  -1.9162076   0.2687151   1.2213078   0.0193031  -0.3122269  -0.3740057
  -0.2969528   0.1107780   1.5411853   0.6410392   1.1746070   0.3181077
   0.0497157   0.0931001  -0.0207000   0.2068481  -1.2101391  -0.4508733
  -1.1392381   0.9766781   0.2579886   0.0216013  -0.1539087  -0.2378224
   1.1160541  -0.8823537   0.2398286  -1.0657440  -0.1110353  -0.3328170
   0.1711250   0.0658524   0.0815933  -1.2819968   0.7237921  -0.5609767
  -0.8795579  -0.9337715  -0.4602281  -0.0980043  -0.2117540   0.1408333
   0.0728028  -0.1885496  -0.7421692  -0.6514945  -0.4297674  -0.3697990
  -0.0044852  -0.0955306  -0.0779776  -0.2834558  -0.2992221   1.2304905
   1.5508875  -0.2065683   0.9411447  -0.0400511   0.3868392  -0.3821224
  -0.4322290   0.5218984   0.7416284  -1.3512835  -0.5465261   0.4378030
   0.3975682  -0.3182332   0.0093243  -1.1850067  -1.0661024  -0.0836984
  -0.7511497  -0.2255867   0.6953139   0.0501525   0.0539078  -0.0918703
  -0.9090072  -0.6514651  -0.7798274  -0.5558467  -0.4464892  -0.2775608
  -0.0097954   0.1249980   0.1524833   0.4909674  -0.3111702   1.0403603
  -0.6121834  -1.3421363   0.2171135   0.0428167   0.2859977   0.2056477
  -0.4920655   0.3391782   0.2557373  -0.0196731  -1.1041294   0.8214595
  -0.1548164  -0.1593715  -0.0546167   0.0564581   0.2310811   0.7116274
   1.6546357   1.4882047   0.4528592  -0.0081143  -0.5307676   0.2187290
  -0.0580163  -1.6516873  -0.1588999   0.6410203   1.6804554  -0.7200324
   0.0772823  -0.1541046  -0.0965789   1.2934414   1.3802397  -0.1877746
  -0.6607684  -0.3261647  -1.6262491   0.0099525   0.0492757  -0.2667536
   0.0448291  -0.5006953   0.4794441  -0.6907504   0.3327168   0.6218448
  -0.4734518   0.0255902   0.1925857   1.0313965  -1.0645906   1.1450987
  -0.2410245  -1.7783231  -1.0189609  -0.0572104   0.0831321   0.2804574
   0.0627793  -0.3128291  -0.0407289  -1.4348269  -0.5121234   0.3590479
  -0.1648967   0.1384551   0.3843634  -0.1190638  -0.0536531   0.3928412
   0.2465059  -0.8521897   1.5067590  -0.5726892   0.2732125   0.0106789
  -0.1360703   1.2272565   0.0701427   1.0865351   0.1639879  -1.0404901
  -0.1344094   0.1003042   0.0906617   0.7981731  -0.6261971  -0.8442978
  -0.2731434  -1.7489443  -0.5886859   0.1844284   0.1839112  -0.2445758
   0.5258970  -0.1973871  -1.6864621  -1.2139122   0.3000444   1.3992930
  -0.2104955  -0.1405178   0.2447835  -0.0382968   0.4435336   0.2568922
   0.7327573   0.0729960  -0.0190005   0.4107498  -0.2075733   0.0049737
  -0.8375375  -2.5589539   1.0797158   0.0627406  -0.5034205  -0.8643490
   0.0557122   0.2308195  -0.0066353   0.8836090   0.0178709   0.0189366
   0.4019638  -0.5360304  -0.4613125  -0.0519698  -0.1287599  -0.1853741
  -1.3096159  -0.2631590   0.7217591  -0.5504801   0.3947960   0.0338746
  -0.1008018  -0.0070133   0.4510671   1.2124450  -0.5662514   0.7438808
  -0.6893435  -0.6252891   0.0727385   0.1684903  -0.1213653   0.1596073
  -0.0270611  -0.3897602  -0.6786193   0.3807704  -0.6924224   0.1864538
  -0.0496426   0.0567755  -0.3738095  -0.0458529  -1.0095053  -1.0565233
   0.2406255   0.6228343   0.5535070   0.0786991  -0.1317489  -0.1719790
   1.3619225   0.8170095  -0.5265073  -1.1537595  -0.5396480   0.6712845
   0.3221196  -0.2090151   0.0897556   0.5168217  -0.1876459  -1.0719727
   0.5206969   0.8381424   0.2247576  -0.2050363   0.1326393   0.3015138
  -0.4047704   0.4504065  -0.4577413  -0.2981061   0.3105580   0.4669650
   0.2461988  -0.1483814   0.1878135   0.2710597  -0.1980302   0.7682087
  -1.4334975   0.8269137  -0.5993146  -0.1969251   0.0024915   0.3025959
  -0.2752352   0.7644790   0.0878633  -0.6654547  -0.1663056  -0.2134636
  -0.1393338  -0.2620542  -0.0390344   0.4070864   0.0638946  -0.9371139
   0.4471178   0.4464137  -0.0002185  -0.0588263   0.1142416   0.3439940
  -0.4924337  -1.0757079  -1.4697303  -0.5275040  -0.1864100   0.7245646
  -0.1707274   0.0925754  -0.0010725  -0.1706319  -0.9895459  -1.5639663
  -0.6519132   0.1500330   1.5486451  -0.2501589  -0.0843526  -0.0741288
  -0.0580593   0.4691353   0.0899267   0.7141523   1.6680522  -0.2230832
  -0.3081176   0.0406716  -0.0965556   0.0418539   0.1149045   0.3677843
  -0.2656790   0.5667531   0.3927295   0.4989056  -0.3133540   0.0412374
  -1.0727629  -0.7718297   0.1504009   0.0317279  -0.5217458   0.3784278
   0.1973962   0.1423328  -0.0909749   0.3462790   0.0317162   1.0173434
   0.3894524   2.4260897   0.3387332  -0.2677844   0.0274531  -0.0834224
   0.5922669   0.3096424  -0.2073023   1.9741679  -0.2438600   0.5526125
   0.2024034   0.1135175  -0.0422612  -1.1483684  -0.1760513   0.6996593
   1.2198862   0.2326748   0.8609525  -0.0366796  -0.1567493   0.2258658
   0.3296210  -0.6817906  -0.6528039  -1.0007453  -0.4193449  -0.9350050
   0.1193654   0.2631545  -0.2502220  -0.8492853   0.5879635   0.7802557
   0.7641284   0.1593570   1.4421126   0.0855324   0.2903608  -0.1948757
   0.1515682  -0.5034321  -0.5046748  -0.4157003  -0.7945094   0.0036755
  -0.0777700   0.2171977  -0.0136738  -0.1171771   0.0620580  -0.4876822
   1.0062971   0.5119341  -0.9818755   0.2092618  -0.2617022  -0.1391886
   0.9563064  -0.0343859  -0.6808505   0.0382282   0.1174155  -0.3699803
  -0.2661573  -0.0410889   0.0174730   0.0756873  -0.9675331  -1.4622769
   0.3690829  -0.1539503   0.5927948   0.4367749  -0.0540445   0.1260451
  -1.6782135  -0.1177263   0.3954328  -0.4280420   0.1726429   0.6685438
  -0.3049787  -0.0739349  -0.2929458   0.1421285   0.2793522   0.3257668
   0.1209746  -0.6611138   0.3251583  -0.1685276   0.0785527   0.2567446
  -0.4006314   0.0300369  -0.4506217   1.2060147  -0.4843851   0.8216148
   0.0421923  -0.0794321   0.3838279  -0.6627900   0.0008955  -0.4294915
  -0.4062097   1.6324788  -0.7789312  -0.1288578  -0.2200297   0.0628400
  -0.1085933  -1.0343615  -0.3679725   0.5287202   0.1423551   0.7005317
   0.0817999  -0.2449921   0.0114055  -0.8583298   0.4254679  -1.1485309
   0.5737844   0.4836146  -0.5170639  -0.0586862   0.2250390   0.2283572
  -0.7710695  -0.4271423   0.0433308  -0.1171140   1.5751129  -0.7703869
  -0.0422559   0.2253938  -0.0214740  -0.3124213   0.1362195   0.3460935
  -0.8557623  -0.4493727  -0.5940442   0.3585933   0.0485793   0.0075179
  -0.6614449   0.3311789  -1.3283705   1.2495048  -1.0332231   0.5381234
  -0.1567917  -0.3032407  -0.1926586  -0.7623031  -0.2566824   0.3726969
   0.1022725   2.1010733  -1.2140305  -0.3432160  -0.0788668   0.0437779
   0.1588058   1.2012104   0.4124623   0.1267531   0.4387059  -0.6691722
  -0.0034128   0.2519367   0.1351819   0.5034555   0.3246628   0.9369140
  -0.4418764   1.2282235  -0.1774299   0.0626528   0.1717000   0.0716707
   0.0909775   0.1753125   0.0309835  -1.1980544  -1.5434492  -0.1853636
  -0.0053675   0.0201678  -0.0418939   1.5472945   0.3594434  -0.6918974
  -0.1558414   0.6854875  -0.2789843  -0.0366577  -0.0091347   0.3185493
   0.3723427   0.3257619   0.3416355   0.3555077   1.1774031  -0.5940515
  -0.3152726   0.1473052  -0.0324703  -1.0955957  -0.5278780   0.2788930
   0.1956419   1.3229838  -0.6896223  -0.1803968   0.3137808   0.0404677
   0.0531834   0.9868443  -1.2309727   0.4714387  -0.9907760  -0.2959744
   0.0290674   0.2774561   0.1667050   1.7589978   1.0378441  -0.0246060
  -0.7230294   0.5036212  -0.3688714   0.1905009  -0.0419687  -0.0213997
   0.5381299   0.7450713  -0.4619698  -0.6306880  -0.2610255   0.6588032
  -0.3710697   0.1344450  -0.1727351   0.2272787  -1.4128737  -0.6245268
   0.0150965  -0.3509388   0.3538650  -0.0944809  -0.0623888   0.0081925
  -0.3811826   0.5592437   0.9853141   0.0903706  -1.6252948   0.2424255
  -0.0384725   0.0942596  -0.1299998   0.1603793   0.2097091  -0.0042327
   0.7886053  -0.0040887   1.3044441   0.1395330   0.0113339   0.1708973
   0.3914428   0.2949176  -0.3076593   1.0861750   0.0647964  -1.5058169
   0.2326026   0.2400167  -0.0262812  -0.1505432   0.8442416   0.8263233
  -1.3225285   0.1582601  -1.0812312   0.0888707  -0.4341325   0.0386549
   0.3137949  -0.3785626  -0.3926319   0.9832378   0.7854071   0.5606267
   0.2694516  -0.0242666   0.0046018  -0.2224406  -0.3298176  -0.5889977
   0.3098613   1.1024534   0.7470612  -0.4235807  -0.0472181  -0.0209421
  -0.8493343  -0.1584003   1.6742002   0.7029773   0.3562671   0.7863886
  -0.1325328  -0.0470485   0.0035319   0.3650764   0.3993454   0.4628861
  -0.4109866  -0.2099157   0.6702764   0.0634179   0.2116352  -0.0285005
   0.0045867   1.6391109   0.7008502  -1.5966729   0.2640036  -0.3427316
   0.1924144   0.0863174   0.1654918   0.5309848   0.3558990  -1.2890501
   0.8602182   0.8595697  -0.0161829  -0.0411711  -0.0700530  -0.1704201
   1.1439461   1.4073748   0.4074171  -0.0642682  -1.3194815  -0.2942569
   0.1564119  -0.1248081   0.1325317  -0.5350793   0.1705981  -0.4129866
   2.1404531  -0.2396782  -0.9072970   0.0747066  -0.1000544  -0.1916170
   0.2369469   0.5578585  -0.3880295   0.4842487   0.1997030   0.6999165
   0.0204033   0.0282405  -0.0033097  -0.9725562   0.0676157   0.6532253
  -1.4204483  -1.9206190   0.2638059   0.0670416   0.0085354  -0.1100749
  -0.3965969   0.1819339  -0.1508101  -0.0345743  -0.1087047   0.0240175
   0.1402166  -0.1079221   0.1492123  -0.0260289  -0.8995919  -0.7144257
  -0.1033707   0.1233370   0.0473291   0.3483790  -0.1273251   0.0802046
  -0.4565294  -0.7063078   0.7695860  -0.2778709   0.3798095  -1.0968447
  -0.3104271  -0.2033024  -0.1801662  -0.7314909  -0.6858521  -1.0612307
   0.4961091  -0.4390251  -0.9035307  -0.1891945   0.1765045   0.2398937
   0.2918534  -1.1145252   0.3424384   1.2250965  -0.6659435  -0.3351016
   0.0083771  -0.2536902  -0.1064254  -0.3281820   0.1842347  -0.1928201
   1.2812201  -0.1703488   1.1089430   0.0461579   0.1258305   0.0705482
  -0.5068258  -0.3495418  -0.1838847   0.9741313  -1.2804670  -0.3899601
   0.0837909   0.0050019  -0.0183239  -1.6517664  -0.9595281   0.2828848
   0.0872760   1.3001329  -1.4549807  -0.1927920  -0.3709816   0.1082524
  -0.0344860   0.3722222   1.0138213   0.6111628  -0.2533975  -1.0040757
   0.0730609  -0.1645539   0.3490308  -0.4502610   0.1935046   0.6017081
  -0.2123876   0.6266060   0.0238420  -0.2171766  -0.0610950   0.3328368
  -0.3530539  -1.1857362   0.3936980   0.0358025  -0.5900637   0.1038770
  -0.1765775   0.1679864   0.0124942   0.5093015  -0.8679342   0.8537031
   0.3880279  -0.1901176  -0.3976218  -0.1385487  -0.0454460  -0.0526342
  -0.6236426   0.3564757   0.0307074  -0.7598626   0.3485503  -0.5160916
  -0.0632538   0.0483759   0.0955430   0.0172321  -0.5758331   0.0382362
  -0.1119003   0.0470801   0.2566228   0.0415235  -0.1677732   0.3631944
   0.0654883  -0.0235726   0.2520219  -1.2747767   1.1998699  -0.5913455
   0.3625655   0.0759303   0.4076866  -1.2500325   1.8713512   0.7610417
  -0.3759213  -0.1223431  -0.9038340  -0.0556605  -0.0859752  -0.2384860
   0.2408915  -0.6916912   0.4765955   1.2394563   1.1481218   1.1997769
   0.1983799   0.2320885  -0.1260595  -0.6130759  -0.6257737  -0.8832756
   0.2636612   0.3460029  -0.5171589  -0.0095519  -0.1403706  -0.0469530
   0.7392837   1.0006652  -1.2908665  -1.0145146   0.6226655   0.3084825
  -0.1670440  -0.0770591   0.2257303  -1.6953632   0.1058690  -2.0335351
   0.7534823   1.1119477  -0.9166031  -0.1680842   0.1548864   0.2342097
  -0.9973078   0.8098687   0.1830081   0.8823561  -0.9579797   0.8832410
   0.2461837  -0.0632081   0.2734395  -0.6627846  -0.5250740   0.7028902
   1.1959255  -0.8752447  -0.1978178   0.2120978   0.0765448   0.1971226
  -0.2683919   0.8649310  -0.1863184   0.4997255   0.7287692  -0.1201605
  -0.2626952   0.1139145  -0.2318793  -0.3022537  -0.3177773   0.1266837
   0.8858636  -0.2221379  -0.6560213  -0.0229443  -0.2249257   0.2595417
  -0.3340349  -0.3178897   0.4539539  -0.7803687   0.4879185  -1.5073635
   0.2022076  -0.0998482  -0.1518009  -1.0306626  -1.0735707  -0.4119355
  -0.5752225  -0.1900938   0.1477922   0.1405183  -0.0903130   0.0589708
  -0.2975752   0.8614198  -0.3629854   0.5557809   0.5582726  -1.0413121
  -0.1283491  -0.0936322  -0.0037728  -1.2631073   0.5121438  -0.3864246
   0.7387106   0.6213322  -0.0188855   0.0346641   0.0447692   0.1234924
  -0.5506992   1.8047215   0.4961533   0.7314280  -0.8923287   0.3034693
  -0.3665840   0.0435186   0.1375153   0.1086815   0.5884061   0.4219695
  -0.2002085   0.7468117   0.0181138  -0.0417948  -0.0974527   0.1552491
  -0.0110452  -0.7672564  -0.0435467   0.6750764  -0.3406065   0.0537568
  -0.2689019   0.1224054   0.0678882  -0.5834145   0.1961771   0.1834619
   0.8944713   0.6392425  -0.1880875   0.0376399   0.0779335  -0.1276905
  -2.1175675   0.2260165  -0.1878775   0.8527607   1.3109602  -0.8690067
   0.2723561  -0.1680387   0.1244704   1.0247522   0.1231548   1.7835722
  -0.8003034   0.6156596  -0.5367919  -0.0962670   0.0753656  -0.1834170
  -0.3211074  -0.2560783   0.9583881   0.2172779   0.4515991  -0.9879422
  -0.0435315   0.2088066   0.1392266   0.7820693   0.0672487   0.9512831
  -0.8230480   1.4299213  -0.6468664   0.0550243   0.3059930   0.0616791
  -0.0743098  -0.5651704  -1.6540375   0.6146326   0.1317663  -0.9329701
  -0.0005896   0.2552728  -0.2969158   1.0357346   1.4117926  -1.2656833
  -0.0773393  -0.6723349   0.2685978  -0.0146453  -0.1356007  -0.1100363
  -0.4293631  -0.2726171   0.3580555   0.6607662  -1.0451302   0.7118242
   0.2976305   0.1267749  -0.0496277   0.2499292   0.5117283  -0.5097676
  -0.5493147   0.1722619  -0.4437969  -0.0161922  -0.2758650   0.0898631
  -0.5686303  -0.4282728   1.1225691   0.5175432   0.6148580  -0.2130279
   0.0692547  -0.1587217  -0.1779416   1.2581755   1.2373976  -0.1904620
  -1.1162266   1.3810631  -0.7956043  -0.0208049   0.0255483   0.1193217
   0.3027588   0.2875840  -0.2851720  -0.9364706  -0.8756608  -0.0554852
  -0.2685815  -0.1459915  -0.1985085  -0.2534352   0.8435045  -0.5023344
  -1.2231598   2.3383162   1.0118565   0.0792614   0.1768038   0.1112061
   0.5603497  -0.5596663   0.8337779  -0.0636444   0.0598584  -0.1013987
  -0.2821719  -0.0641316  -0.0542560   0.4461036  -0.0083037  -0.9899003
  -0.2337591   1.1035876   0.7576457  -0.2157348  -0.0420239   0.3759561
  -1.0403710   1.0267864  -0.4381307   1.9210573  -0.3662795  -0.2324016
   0.2667286  -0.2500204   0.3092378  -0.4542602   0.8147440   0.7081636
  -0.0688693   0.1830987   0.4020254   0.1216126   0.1308961   0.0710859
  -1.0565049   1.6195303  -0.6072332  -0.6742439   0.8679334   0.0028071
   0.0477266  -0.0191577  -0.1879450   0.6365929  -1.2480379   0.4471983
   0.9353586   0.2801637   0.1584316   0.0070280  -0.0782879   0.3786917
  -0.3606544   0.2394749   0.0234721   1.5652279   0.2155236  -0.7799244
  -0.2265542   0.0480034   0.2194079  -0.7703521   0.7599825  -0.4439108
  -0.5253574   0.8623875  -0.6028389   0.0984351  -0.0085722  -0.0420964
   0.8531969   0.2497610  -1.6166408   0.5629808   1.6477674   0.1278551
   0.1143349   0.0806057   0.0501593   0.6847716   0.1411268  -0.8960059
   0.8320158   1.1827992   0.2499033  -0.0112310   0.0273959   0.0890034
   0.5861974   0.6460836  -0.7629569   0.8771319  -0.9736394   0.5630697
   0.4195628   0.2680081  -0.1876312   1.0450552   0.5820753  -0.7541442
   0.6793922   0.2003116  -0.0594680   0.1220323   0.0155040   0.3935450
  -0.2452400   0.9824580   0.7799374   1.2198062  -0.7663817  -0.4200623
  -0.0344457   0.1420823  -0.2818242  -1.0338859  -0.8772872   1.1248225
  -1.1819989   1.6042612  -0.3050554   0.0795779  -0.2421476  -0.0913301
   1.0806385   0.2510707  -0.7076901  -0.4666077   0.7690609  -0.9235972
   0.0746192   0.1951760  -0.1313173  -0.2699788   0.3898429  -0.7221206
   0.7502491   0.8159319   0.0930311  -0.2254556  -0.0086897   0.0782940
   0.4603373  -0.0159356  -0.3516616  -0.0763501  -1.0607697  -0.5002084
   0.2344146   0.1203446   0.2103465   0.2365107   0.6260126   1.0319260
  -0.6174852  -0.5127875  -0.2578990   0.2031915  -0.2739933  -0.0198325
  -0.0447872   0.5716954   0.5462902  -0.0099238  -0.2588074  -0.4904592
   0.0592261  -0.1759727  -0.0252447   0.7594097  -1.0907919  -1.1475251
  -1.3325262  -0.9008611   0.4737945   0.0674907   0.3976814  -0.0398176
   0.7928236  -0.1306089   0.3159782   0.3201364   1.1505050  -0.5205699
   0.0808450  -0.3455781   0.0386579  -0.0627531   1.1420871   0.2715093
  -0.2917045  -0.5845437   0.1340438  -0.0571268  -0.0733702   0.0028336
  -0.5463925  -0.6344777   0.1728990   0.0639134  -0.6182816   0.0344218
  -0.2250841   0.0064524   0.0358035  -0.8904324  -0.8334773   0.9927623
   0.4156135   0.8000371   1.5341125  -0.2968517  -0.3894874  -0.2392390
   1.7344545   0.4545860   0.6118768  -1.3514606   0.1430709  -0.5216134
  -0.0306536   0.1669360  -0.0005344  -0.9675270  -0.4134503  -0.9633430
  -0.6246414   1.2577466  -1.1273442   0.1580388  -0.4709611  -0.0035431
   1.3571555   0.2004907  -0.7581146   1.1131537   0.1185384   0.7692626
   0.0760675   0.3836203  -0.1290502   0.4257980   0.9117328  -0.4470577
   1.2540887   0.0541822  -1.3342372   0.1916565  -0.1746919  -0.1790845
   0.0982257  -0.3545306   0.1288416  -0.8975416  -0.0291543   0.4351380
   0.1281299  -0.0954714   0.0137333   0.5305930   0.1699669   0.2094035
   0.8790065  -0.4915470   1.2588109  -0.1532717   0.2023572   0.2951596
   0.9739718   0.3636825   0.7691640   0.0291127  -0.0858416  -1.6025563
   0.2248293  -0.0007575   0.0052469  -0.3356117   0.9635006   0.7545452
  -0.6566720  -0.2636773   1.5298043   0.3451725   0.2496178  -0.0223529
   0.0597753  -0.5970886  -0.1928547  -1.1859430  -0.4929021   1.3236021
   0.1240629  -0.1823744   0.0739865  -0.6576996   0.5151041   0.5765286
   0.1172572   0.0957626  -1.5778613  -0.0314555  -0.2984006  -0.1087055
  -0.6254296  -1.0043685  -0.7387376   0.4277861   0.8412923  -1.2831867
   0.2766477  -0.0167389  -0.0504185  -0.6512131   1.1904334  -0.6200702
  -0.8563383  -0.1540210   0.1888725   0.1156227  -0.3139835  -0.3199914
  -0.2951757  -0.2148589   0.9590730   0.8424995   0.2778840   0.7372731
   0.0947221   0.0019141   0.2736884  -0.9349569  -0.6926619  -0.9979662
  -0.6958020  -0.1713189   0.7549153   0.1401231   0.3482472   0.1142945
  -0.2360431   0.0175258   0.9322746   0.1433294   1.4777664   0.7739520
   0.4836808  -0.2306932   0.0854128   0.3899380  -0.5823217   0.8818808
   0.5064311  -0.2559053   1.3730725  -0.0967265   0.0017659   0.0413634
  -1.1786646   0.5122112  -0.1968570  -0.9744834  -0.7703568  -0.4176277
  -0.4023566   0.2221061  -0.0668673   0.7698454   0.6247586   1.3747391
   1.2439839   0.7926453  -0.5233367   0.1600685   0.4590743  -0.0405311
  -0.2065338  -0.0331211  -0.8986860   1.8708046  -0.8402477   0.1484794
   0.3411918  -0.2019651   0.1206848  -0.0592876  -0.4788685  -0.2347445
   0.4953999   1.4228496   0.9627685  -0.2569412  -0.0396711  -0.1573786
  -0.6837775  -0.1902297   0.1234593   1.5914232  -0.6662110   0.6824155
  -0.2209120  -0.2854738  -0.0841072  -1.5039647   0.8259572   0.2572356
   0.0230933  -0.7121624  -0.8374569   0.0125852   0.0035622  -0.1467482
  -1.4475276  -0.0968718  -0.2774701  -0.1787435  -0.1581980  -0.1748329
  -0.1087868   0.4766023  -0.1371730  -0.0692600  -0.1954386   1.4556638
   0.8637255  -0.1942340  -0.4180807  -0.2037746  -0.0346364   0.0907154
   1.0226859  -0.2913702  -2.1449184   0.4773298  -0.0721973  -0.8463950
  -0.0093500   0.0789883  -0.4013632  -0.9640337   0.6902933  -0.0029160
  -0.3928797   0.4978328   0.0924771  -0.2364724   0.3499448   0.1144632
  -0.1901733   0.4565235   0.0073108  -0.5591059   0.6782714   0.8264100
  -0.0643766  -0.0722136  -0.0745688   0.5015999   0.9609465   1.5588602
  -1.9613053   0.3521946  -0.7484961  -0.0292516   0.1740778  -0.0248590
  -0.1634680   0.9558706   0.3069490  -0.1000705  -1.1789339  -0.3793533
  -0.1218133   0.3658462   0.0029483  -0.6834401   0.3857279  -0.5694113
   0.2645172   0.2935607  -0.5986261  -0.1400604   0.1637009  -0.0715887
   1.0118296  -0.3205632   0.4589860  -0.0456513   1.5833077   1.2246050
   0.3604816   0.1774347   0.1444785  -0.6981691   0.0187917  -0.0973070
   0.6089976  -0.3629684  -0.5478983  -0.0334669   0.1030455   0.2516657
   0.3152625   0.8338651   0.9151656  -0.7558006  -0.2604678  -0.5380762
  -0.0058678  -0.2554967   0.2083070  -0.4944430   0.4397418  -2.1598052
  -0.5930758   0.4105289  -0.6439104  -0.0960172   0.0043253   0.1576902
  -1.7007597   0.6742487   0.0508452   0.2679592   0.8502790  -0.5819805
   0.1753068  -0.1863830  -0.1341698  -0.9918697   0.4127278   0.5946486
   2.6964288   0.9013205   0.5833554   0.0966139  -0.3589260  -0.0820017
   0.0029297   0.1375563  -1.2807849  -1.1796429  -1.2283360   0.6837424
  -0.1884674   0.1108883  -0.1676346  -0.7689904  -1.5485595   0.6891119
   0.0381505   1.2513900   0.2028083   0.3030369   0.4129419   0.1833352
   1.1093491   0.3164698  -0.3819002  -0.3242905   1.6199803   1.0164210
   0.2063813  -0.3032620   0.2785833  -0.6786085   0.1560845   0.3096648
  -0.0548930   0.1299751  -1.1668989  -0.0979587   0.4927178  -0.2276758
  -0.9443557  -0.3385707  -0.5759816   0.9064525  -0.2559839  -0.7317016
  -0.2426007  -0.0215838  -0.2778435  -0.1691444   0.1461664  -1.4098684
   0.0678534  -0.3204574   1.6582376  -0.2955947   0.1266043  -0.1443260
  -1.3251567  -0.1275987  -0.5111397   0.6869516   0.5286506  -0.6482760
  -0.0919177   0.1714443  -0.0741225  -0.5199392  -0.1630034   1.8546545
  -0.6738336   0.1213732   0.7285375  -0.6428876   0.2182367   0.0097433
  -0.3337273   0.4721937   1.4724717  -0.8770600  -1.0506071   0.1898594
   0.0774259   0.3545427  -0.0147420   0.8277739   0.8792492   1.1889222
   0.8743054   0.2126656   0.8874631   0.1247037   0.0913091  -0.0842242
   1.4874885  -0.3161370   1.1256536   0.3294148   0.5189331  -0.7091785
   0.1578595  -0.2761816  -0.0336695  -0.1332764   0.1578756  -0.2957477
   1.5764318  -0.0103469  -0.6924545  -0.0494982   0.3139150  -0.0756991
  -0.0191286   0.3020424  -0.6367360  -0.1206691   0.3684638  -1.4884341
   0.0470328   0.0339674   0.0506329  -1.2647789   0.1774080   1.6720588
   0.7178831   0.9506614  -0.8081732   0.0571407  -0.0067336   0.0241276
  -0.4209869   0.6319768  -0.0939803  -0.5672599   0.1693798   1.0711162
   0.1273720  -0.2038535  -0.0324335   2.0922204  -0.2975032   0.9968203
  -0.3114289   0.2698614  -0.5585015  -0.1535514  -0.0571175   0.1062547
  -1.9684241   0.2138114   0.3430797  -0.1045622   0.7040985   0.3632959
   0.6323456  -0.0755961   0.0075996   1.0476184  -0.7594196  -0.3581548
   0.4792054  -1.0263408  -0.1651479   0.2402902  -0.3399455   0.0140389
   0.5316013  -1.3380313   1.1510353   0.7805978   0.5348747   0.2746223
  -0.1755493  -0.0416375   0.1017461   0.4317939   1.2161713   0.6932273
   1.3084397   0.0251195  -0.1150753   0.0605194   0.1293291  -0.3156505
   0.6708689  -0.8586474  -0.0183877  -1.0169505  -0.9802711   0.3836330
   0.2377032  -0.1035320   0.1350791   0.9852706  -0.7510082  -0.8783197
   0.6286544   0.1515215   0.4051140  -0.1004305   0.0729496  -0.1174409
  -0.5850075  -0.3157807  -0.4883257   0.2420295   0.0477321   0.5286371
  -0.1639693  -0.1402749  -0.0694266  -0.1371075   1.6793428   0.5158920
  -2.8254015  -0.6928732  -1.2227995  -0.0660692   0.0057104   0.2572415
  -0.7281914  -0.9447166  -1.1089242   0.9139358  -0.4078018  -0.4182045
   0.0326322  -0.0671167  -0.3236479   0.0276345  -0.6523135   0.5105083
   2.0559519  -1.4179457  -0.2680677   0.0165050   0.0518452   0.0589434
   0.4700670   0.4450255  -1.4236636   0.6412641  -0.2028838  -0.4453684
  -0.2060098  -0.1697540  -0.3554014  -0.2479863   0.1641343   0.3262441
  -0.4528531   0.3753458  -0.6420269  -0.0670654  -0.0045183   0.1363951
  -0.3327631  -0.9337372  -0.3161900  -1.1322392  -0.7313816   0.3104646
   0.0583907   0.2747890   0.0228868  -1.1408310  -0.4027330  -0.4848334
  -0.0418135   1.2109330   0.9418465  -0.1509223  -0.0028981  -0.1632631
  -0.4902147   0.5613597  -0.8359477  -0.3717292   0.3058609  -0.5775378
  -0.1598725   0.1951529   0.0911213   0.8536718  -1.1645678   0.9585131
   0.6129282   0.0669072   0.3296180  -0.0452925  -0.1464457   0.3261411
  -0.5103132   0.6592540   0.4694117   0.6148096  -0.4445332   0.2658737
  -0.2762060  -0.1475755   0.2752339  -0.0647826   0.0547593  -0.7168166
  -0.1292229  -0.4643335   0.7621101  -0.0939590  -0.1432001  -0.0547101
   1.0553212   0.3070491  -1.2426771  -1.8082296   0.6909241   0.3189541
  -0.1016474  -0.0484348  -0.2513334  -0.5827512   0.2507066  -1.7338937
  -0.7685550   0.7495692   0.2989969   0.1439638   0.0612639  -0.0012795
   0.3130446   0.5648332  -0.0534857   1.0914673  -0.4856019   0.3573925
   0.3865401   0.0770993   0.2812815  -0.5142633  -0.8664205   0.7629050
   0.1340408   0.4124345   0.2004704  -0.2172458   0.2541973   0.3090095
  -0.7943280  -1.3543706   0.4631667  -0.2645076   0.0784761  -1.8178928
   0.0454616  -0.1559016  -0.2039969   0.9340363  -0.9212690  -0.2734648
   0.4596906   0.1575786  -0.0505930  -0.0210359   0.2429556   0.0866772
  -0.0165089  -0.6956212   0.5583708   0.4252813   0.9133832   0.3088466
  -0.1740133   0.0021925  -0.1160162   0.9901937   0.3337037  -0.5464807
  -0.1784507  -0.0272442   1.0448396   0.1491067  -0.1733967  -0.2050778
   0.1065777   0.1920738  -0.0406492   1.5330559   0.3039302   0.3938334
   0.3052190  -0.0423096  -0.1818499   0.2400554   0.8956179  -1.8431491
  -0.1881326   1.2971071  -0.0569989   0.1312288   0.5009189   0.2359733
   0.0474680   0.6347256  -0.3996256  -0.3972707  -0.3532519  -0.0895655
   0.2294850   0.0536386   0.1476571   0.5671827   0.0766748  -0.9268180
   0.7160735  -1.2057077  -0.0359324   0.2484275   0.0185004   0.3024468
  -0.9000685  -0.5278159   0.7497662  -0.2065490   0.9523369   1.0082274
  -0.2548699  -0.0870936  -0.1904443  -0.1250682  -0.7890872   0.7769419
   0.1333651  -0.1525781  -0.3144238  -0.1237200   0.1031815   0.0464217
   0.7473236  -0.6255612  -0.4519495   0.8617266  -0.2786882   2.1531942
  -0.0255182   0.0701885  -0.1249509   0.1298417  -0.4716584   0.1741336
  -0.2164514   0.3598226  -0.0832107   0.0472531   0.1758388  -0.0516111
   0.9980652   0.1985922  -0.8457174   0.9960881  -0.6241548  -0.0199321
   0.0781624  -0.2806876  -0.0162991  -0.9505047   0.3309753   0.4360744
   0.5692810  -0.1372631   0.1125784   0.0089689   0.2473668   0.0935496
   0.8415782  -0.2839637  -0.1656349  -0.5592693   0.4044898  -0.3016526
   0.1764621   0.2049324  -0.1532292   0.4392395  -0.2491856   0.4518944
  -0.3832836   0.2045228  -1.0249176   0.0940115  -0.0641516   0.1076714
   0.4578119   0.9168872   0.1199959  -0.3156859  -0.7739390  -1.0418426
  -0.1120410  -0.1442994   0.1211099  -0.0686230   0.7596860   0.8085898
   0.9391346   1.4439524  -0.1671927   0.0196833  -0.3897729   0.1231304
   1.0227342  -1.6665166  -0.1426795   0.7742575  -0.3253838  -0.9597022
   0.1871682  -0.0975362   0.4538849  -1.2559208   0.2954212  -0.6401130
   0.7749530  -0.8320475  -0.2203587   0.0355556   0.0906529   0.0618544
   0.4158405   0.7992260  -1.0031199   0.4126194  -0.5966794   0.5038871
   0.3056172   0.2025122  -0.0835300  -1.0366126   2.1405788   1.4610178
  -0.0287950   0.1200729   2.3837680   0.0582284   0.4249576   0.0043379
   1.6481858   0.0335047   0.8110431   0.0732157  -0.8827983   0.7954941
  -0.0459897   0.2686066   0.3089617  -0.0128324  -1.1917537  -0.3088368
   0.2795840   1.6423040  -0.0805403  -0.1423934   0.1638220  -0.1665698
  -0.4474549   1.0889993   0.3778598  -0.0741862  -0.7548282  -0.3193899
  -0.3961141  -0.1810146   0.0195865   1.1715407  -0.1838110  -0.5236764
  -1.3693245   0.8707940   0.0026572  -0.0098868  -0.2838675   0.1716427
   0.0773448   0.8335596  -0.9517072  -0.2939290  -1.2148260  -0.1585861
  -0.1262677  -0.1034409  -0.1895899  -0.0476175  -1.0285223   1.1486330
  -0.6787237   0.2390531  -0.0327750  -0.0846396  -0.3285709   0.0327228
   1.5265723   0.2277417   0.0973328   0.6334807   0.2725645  -0.3031391
   0.3926414   0.2200502   0.0626765   0.6699130   0.6781412   1.3061438
   0.1351950   0.0609718   0.9647592  -0.2081664  -0.0061594  -0.1913360
  -0.3064675   1.0580750   0.4537234   0.7864871  -0.8121991  -0.8290143
  -0.0764058   0.0586633   0.0668346  -0.0867853  -0.7470768   0.0916882
   1.0913231  -0.2711962  -0.5212155   0.1888138   0.1241097   0.3093760
   0.2952887   0.2329458  -0.6918160   0.0820913   1.7808473   0.1145733
  -0.1619050   0.2365484   0.2587833   0.8989565   0.3817858   0.0198977
   0.7000587  -0.3931018  -0.9400711   0.1959847  -0.0493334   0.0796292
  -0.6218966   1.3083065   0.5136876  -0.3504009  -0.5424040   0.5254695
  -0.2863979   0.1175787  -0.0916281   0.0052017   0.3283948   0.6159917
  -0.7293311   1.1857955  -0.3452566   0.1616298   0.1243013  -0.0443956
  -0.1446533  -0.2623803   0.2106011  -0.9845970   0.0526029   0.1330264
   0.1854269  -0.1650483   0.1394596  -0.1197129  -0.4692247   0.6770423
   1.7632380   0.4508605   0.3367701  -0.1698003   0.0798193  -0.1103826
  -0.3361606   0.5679741  -0.9305697   0.7462160   0.1661410   0.5950656
   0.3503296   0.1411009  -0.0084008   0.2520284   0.2527181   0.6443380
  -1.7458888   1.0729180  -0.3012283   0.4589539   0.2719757   0.1416208
   0.2663587  -0.2791779  -0.4451383  -0.3287988   0.6747289  -0.5862913
  -0.3676333  -0.0291888   0.0197692   0.1426551   1.0701010   0.5791044
   1.1114107  -0.4702726  -0.5562872   0.0341266  -0.0463404  -0.1593040
   1.4244312  -0.8167656   0.8500260   0.0216702  -0.2856060   0.5047504
   0.1099420  -0.3265463   0.3253297   0.0799228  -0.7123729  -0.5799848
  -0.2907430  -0.2297556  -0.1213420   0.1676118   0.1366845   0.2905233
   0.0752479   0.0588937   0.4021355   1.5098854  -0.2588585  -0.2849467
   0.1397573  -0.0744085  -0.1684554  -0.2099905  -0.6826550   0.3877055
  -0.6144995   0.9774266   0.1985392  -0.3984336   0.1565689   0.0078095
   0.7929465  -1.3813518  -0.6760066   0.3926805   0.2322934  -0.4522188
  -0.1777783  -0.1750480  -0.1464342  -1.2977953   0.8006441   1.3523244
   0.3621292   0.5644951  -1.4553252   0.3820302  -0.1130747   0.2576587
  -1.2540023  -0.2334116  -1.2891347  -1.4316434   0.8095389  -1.4710499
   0.1838796   0.0351406  -0.2870708  -0.9439592   0.0833028   0.0190056
  -0.0375616  -0.5662476  -0.9877805   0.1219192   0.5126132   0.0343584
  -1.3115737  -0.2492237   0.0345220  -0.0651722  -1.2053216   0.6849432
   0.0129756  -0.0020672  -0.1365175  -0.1875384  -0.3966612  -1.1009366
   0.6955279   0.0317711   0.1964864  -0.0091958   0.2779315   0.1297850
   0.3910244   0.1411196  -1.1473122  -1.0495301   0.0702396   0.3258762
  -0.1663327   0.0409701  -0.1368952   0.7553725   0.1561222  -0.0472428
   0.0263189  -0.7646208   0.1453230   0.2326439  -0.1525860   0.3449378
  -0.4664957   0.7177857  -0.3547823   0.0446997  -0.1898686   1.0936110
   0.1546422  -0.0110386   0.3966505   0.6437517  -0.6739977   0.0275466
  -1.0668309  -0.2181245   0.2241655  -0.4237341   0.0924514  -0.1801365
   0.1428832  -0.2241752   0.0165807   0.5060024   0.2143185  -0.8575087
   0.1294479  -0.2420907  -0.2688667  -0.1768533  -0.0786369   1.0473533
   0.6323454   0.4424888   0.6181527  -0.1850054  -0.0436569   0.2248041
  -1.2593116  -0.0957377   0.5979045   0.1003440  -0.7192223   0.5293670
  -0.0715988   0.2466526   0.2820861  -0.3590079  -0.2640283   0.3715203
   0.8244972  -0.6702494  -0.0633341   0.0925762   0.0546793  -0.3086393
  -1.1463259  -0.7129941   0.5301604   0.5911133   0.4249079   0.1470955
   0.1943192   0.0556661  -0.2462489   0.2872252   0.0987132  -0.1234403
  -0.5292696  -0.7288812   1.4019900   0.3539404   0.5159649   0.2654328
  -1.2642539  -0.2424708   0.9489047   0.4780592   0.0424527  -0.8332674
   0.0534072   0.1906335  -0.2444557   1.1061565   0.3201479   1.6153365
  -1.4808223   0.5920288   1.3855407  -0.1430426   0.1006403   0.2422580
  -0.1989289  -0.9637649  -0.1850514   0.2131263   1.0689806  -0.2725176
   0.2801784   0.0202825  -0.1687128  -0.5531645   0.3536505   0.4000515
  -0.6511548  -0.2786946   0.4691419  -0.0708004   0.0077884   0.1299591
   1.3811171   1.1665045   0.1749610   2.8136794  -0.2197094   1.3000724
   0.3712615   0.0263207   0.1423378  -0.2163068   0.5408520  -0.0324705
  -0.6255248   0.2757500  -0.4314564  -0.0692723  -0.0928418  -0.0144883
   0.8968334  -0.9325029  -0.0311078   0.1389976  -0.2241103   0.0957917
  -0.1531107  -0.2107049   0.0539433   0.9383541   0.0613836   0.0052898
   0.2773149   0.9942123  -0.7615314   0.0468102   0.0848422   0.2453676
   0.2832424  -0.6142282   0.2757149  -0.0851845   0.1221603  -1.1128710
   0.0760338   0.0963950   0.1414103  -1.3357647  -0.3157003  -0.6456105
  -0.8575979   0.6064150  -0.3033726  -0.2071364   0.0853214   0.5156571
  -0.4684831   0.7781862  -0.1321433  -1.4908013   0.0207501  -0.6337474
   0.0376784   0.3404354  -0.4017624  -1.3664506   0.6558508  -0.7892610
   0.9405441  -0.6267200   0.8463688  -0.1102516  -0.2665940  -0.0445216
  -1.1274466   0.5370323  -1.0063583  -0.3290609  -0.2239660  -0.0123767
  -0.4234864   0.1612331  -0.0446926   1.3605247   0.4158112   0.6819830
  -0.8540814  -1.3868952   1.3752306  -0.1986881  -0.2041215   0.1845646
   0.4344501  -0.7171323   0.0058158  -0.6613808  -0.3105610  -0.8288549
  -0.2930649  -0.3486771  -0.1981085   0.1627400   0.2806308   0.4639682
   0.6723914  -0.3307122  -0.5106343   0.0409527   0.0345627  -0.2150268
  -1.0043552   0.9590683   0.3786164   0.5692560  -0.4999257  -0.8902606
   0.0146661   0.0772686   0.0001793   0.6595896  -0.1371304   0.4273096
   0.6837512  -0.2040010   0.8848309   0.1609447  -0.2289834   0.0345118
   0.1954644   0.1406369   0.9047491  -0.3415756   0.2856636  -0.1502834
  -0.1920972  -0.0939919  -0.2820669  -0.6508797  -0.7969884   1.2649079
  -0.3990713   0.4910090   0.2481730  -0.1504061   0.1057660  -0.1922361
   0.1162428   0.1893202   0.3354000   0.8371744  -0.7535930   0.0932956
   0.1070908  -0.0286902   0.2966207   0.7679608   0.2170842  -0.5195417
  -0.5778807  -0.2733995   0.4690607   0.1137837  -0.1744228   0.0375214
   0.1782873  -0.4670901   0.4055253   0.4003592  -0.6534063  -0.0751178
   0.0816947   0.0465526   0.3574873   0.2675471  -0.0695788   0.6448616
  -0.4146869   0.4787631   0.5917858  -0.0325310   0.1107928   0.2378026
   1.3540134  -0.2283022  -0.8980259   0.9324343   0.2276031  -0.7501666
  -0.2004177  -0.1169097   0.0851890  -0.7395046  -0.2019080  -0.7466627
  -0.4537501  -0.4912679  -0.0441959  -0.3170328   0.2566502   0.2277982
  -0.2856334   1.2697954   0.0749673  -1.4118522  -0.4630209   0.4808062
   0.1728269  -0.4206360   0.3101459   0.9856112  -1.7437992  -0.5411297
  -0.4070428  -0.8015171  -0.8640619   0.1038189   0.0773325  -0.2820247
   0.4175896   0.8051605   0.4845140  -0.8705421   0.8910338  -1.0228248
   0.3846202   0.0454473   0.2926047   0.0708232  -0.6470224   0.0914738
  -0.1445441  -0.0236400  -0.1816541   0.2469076   0.0321636  -0.3618716
  -0.5575670  -1.0162412  -0.5858243   0.2052708  -0.0098612   0.5756581
  -0.1956076   0.0680744  -0.0512269   0.5730163  -0.3150968  -0.0098701
  -0.0218435   0.9702526   0.2398826  -0.1860339  -0.1387513  -0.1889000
   0.4721675   0.1224955   0.3834293   0.2373669   0.2043976  -0.4191983
  -0.1381645   0.3949831   0.0763848   0.1859140  -0.4574305   1.0138782
  -0.4807111  -0.7072775  -0.0955967   0.1699961   0.2905392  -0.1030364
  -0.5645285   0.7270591  -1.3786047   0.4801256  -0.3696664   0.6170916
  -0.3428274  -0.1980452   0.0313482   0.0459700  -0.9669404  -0.6229132
   0.8275105   0.2084985   0.6659599   0.0427109  -0.0265215  -0.2944523
   0.0696680   0.8536662   0.1255791  -0.5813254  -0.6058498  -0.5456270
  -0.3367554   0.0213502   0.0708497   0.2702714   1.4894872  -0.5652776
   0.4370019   0.0428374   0.7552887  -0.0811904  -0.1055766  -0.0259675
  -0.9179520  -0.2419644  -0.8564309  -0.6093243  -0.2083105   0.2321111
  -0.1960119  -0.0491897   0.3533316   0.6347607  -0.1053269   0.6897145
  -1.4491754   1.3619027   0.0149335  -0.1425914   0.1409136  -0.1755456
  -0.2288747   0.1082903   1.3698096   0.2543906   0.8125325  -0.1405300
  -0.2532840  -0.2163240  -0.1716456  -0.4465635  -0.2513783  -0.1739828
  -0.5896943  -0.7270689  -0.0601280   0.0760358   0.0004648   0.0293454
   0.8292616   0.8856242   0.6693208   0.5891271  -0.5221294   1.2071901
  -0.2413358   0.0698503   0.0045200  -0.3428965   0.3993456  -1.2565114
   0.3603199  -0.0147723  -0.3008654   0.1285352  -0.0171539   0.2438729
   0.1031917  -0.7317422  -1.0808253  -0.2625421  -0.3813220  -0.7239661
  -0.1648620  -0.2781810   0.4590176   0.1941921   1.1790608   1.1903649
   0.1400768  -1.9141247  -1.4924058   0.0110250   0.4476999   0.2680402
   0.2926179   0.4540815   0.1597241  -0.6736555  -0.4707265   0.9099040
   0.0123445  -0.0579037   0.0061000  -0.4589358   0.1448474  -1.1162340
  -0.6881516  -0.7563616  -0.3114501  -0.0775340  -0.1457635  -0.4723979
  -0.0009974   0.3300542   0.8019617   0.0398432  -0.4083815  -0.4136546
   0.1956828   0.0798278   0.0558886  -1.1564533   1.0164248  -1.1644819
   0.8171038  -0.1240297   1.4128845   0.1256118  -0.0043079  -0.1038089
  -0.3289336  -0.0547876   0.0905430   0.9991030   0.4793701  -0.3516631
  -0.0940742  -0.0175434  -0.0911527   1.5416163  -0.6342483  -0.2705321
  -0.8386094   1.1190738   0.6987640   0.1815924  -0.1686389  -0.0247786
  -0.1967468   0.4548689  -0.8173941   0.6180127  -0.0547199  -0.4398300
   0.0848226   0.3089722   0.3799528   1.7207927  -0.4656110  -0.4667290
   1.6622798   0.4800340   1.1051413  -0.3581965   0.1339004  -0.1927192
  -0.4826328   1.3731263   0.6273132   0.7531463   0.6453419   0.0401540
  -0.2850141  -0.1169835  -0.1786257   0.0044937  -0.2463391  -0.5383906
  -1.0735277   0.5268161  -0.7624782  -0.1601193  -0.1371203  -0.2196999
   0.8208058  -0.8287218   0.8475914   0.7416823  -0.2616937   0.4752040
  -0.0924695   0.0631378  -0.3010193   0.6949455  -1.0887487  -0.9222138
   0.4645075  -0.1261047   1.0992338   0.1514836  -0.4033789  -0.3218456
  -0.6245477   0.2450826   0.1874113   0.2872459   0.2620741  -0.6903865
  -0.0484722  -0.0455261  -0.0322994   1.0677464  -1.0334414  -0.6402077
   1.2576348   0.5730645  -0.5743096  -0.2675486  -0.1267555  -0.1684596
   0.0682204  -0.8381544   0.1487813   1.1170761   0.8520948  -0.5849500
  -0.1402995  -0.1598417   0.2332443  -0.2619266   0.6366290   0.6745401
   0.9467230   0.5809555  -1.0595674   0.1757772  -0.4501016   0.0088929
   0.1568199  -0.2980735  -0.8480304  -0.0013434   0.8489393  -1.4728752
  -0.1224909   0.0889144  -0.3346572  -0.1963296  -1.1357507  -1.2542738
  -0.6889713   0.9274949   0.2224698  -0.0010569   0.2417686  -0.1671534
   0.6723850  -0.3267928   0.6007557  -0.9046001  -0.4736098   0.2882726
  -0.0984108   0.1390573  -0.1593968  -0.2642392  -0.2426345  -0.0023267
  -0.0205177   1.1342616  -0.0417491  -0.0236587   0.0815963  -0.0382864
   0.0127438  -0.4668278   0.6193746  -0.5238788  -0.2611971   0.5775481
  -0.1493093  -0.0456330  -0.1441419  -0.5036453  -0.5835564   0.0739284
   0.5261993   0.2811124  -0.3217729   0.2529354   0.1461537   0.5055391
  -0.1280293  -0.0483892  -0.1985269   0.1350895   0.3005155  -1.2078974
  -0.0258734  -0.3815978  -0.3144062   1.6158678   1.0272948  -0.1955484
  -0.0052734   0.1422273   1.0888526   0.4786442   0.1892939  -0.0659220
   0.7347344  -0.4254185  -0.2093351  -0.3339386   0.3197915  -0.4106182
  -0.1199394   0.1985732   0.1281641   0.8380466  -2.2350811  -0.3784217
  -0.2835646   1.3254476   0.2692233   0.0405225  -0.0891256  -0.0457339
   0.5174563   0.3809264  -1.2754155  -0.3256398   1.0397188  -1.3081809
  -0.1861060  -0.1680695   0.1234241   1.3166458   0.1395956  -0.3772867
  -0.3147285  -0.0958419  -1.0845584  -0.0956715   0.0804449   0.0839283
  -0.4438920   0.5305824   0.0325951   0.5654648   0.0758213  -0.5366094
  -0.0783611   0.0426184  -0.1190845  -0.0824265   1.0700806   1.2297974
   0.9355589  -0.5309430   0.2077456   0.2436758   0.3128185   0.2031985
  -0.3754456   0.2116891   1.1336963   0.0148479  -0.0410401  -0.3413556
   0.1103651  -0.1938192   0.0462463  -1.3155293   0.3840906  -0.2345081
  -0.3223379   0.4130849   0.1041904  -0.2000117   0.2375922  -0.1093443
   0.2907914  -0.2675565   0.1556814  -1.7451450  -1.2956134   0.9228952
  -0.0523273  -0.0988176   0.0000496  -1.2345601  -0.0111899  -1.1315198
   0.0598770   1.1611609  -0.7089964   0.2327905  -0.1963521  -0.2739054
   0.2174160  -0.4038855  -0.8595940  -1.9084452   0.3341033  -0.3280808
  -0.0257848  -0.2787316  -0.0084402  -0.5218789   0.8758851  -0.5208396
  -1.2336737   0.5147836  -0.1434318   0.0032008  -0.2187107   0.3860989
   1.4946663   1.5409221   0.1318683  -0.7045091   0.5271761  -0.6769188
  -0.0177376   0.1718906  -0.0797919  -0.8974212   0.4550479  -0.9174232
  -0.1935963  -0.2282886   0.0632424  -0.1048120   0.0948079   0.1615966
  -0.7310251   0.6240360  -1.0425943   0.3918903  -0.4866031  -0.4854142
   0.0578697   0.0533920  -0.1491648  -0.4720625  -0.0777254   1.4187080
  -0.3018757  -0.5246037   1.3707499  -0.5258608  -0.1524792   0.1721642
  -1.6691265  -1.4538372   0.5762304   0.0168681   0.0208592  -0.0048939
  -0.1558385  -0.2589133   0.1550037  -0.8230733   0.6250761   0.7250698
  -0.2631098   0.0596483  -0.1110934  -0.0631122  -0.0736095  -0.0098794
  -0.0104004   0.0256728  -0.2636718   0.0634164  -0.2637546  -0.5450677
   0.1284782   0.0863224   0.1426258   0.2103990   0.0788131  -1.5600207
  -0.3912502   0.1060690  -0.0694977   0.1764552   0.2444557  -0.0367627
   0.3087462   1.3121379  -0.2567281  -0.7868832   0.0745193   0.0017883
  -0.1305357   0.1404642  -0.1504902   0.0030646   0.9244303  -0.0292861
   0.7566973  -0.7850440  -0.0137242   0.0024942   0.1487461   0.1665688
   0.3420032   0.5294722   0.1830010   0.6978345  -0.0075035   0.5431043
   0.2088722  -0.0000273  -0.0524723  -0.6352430   0.7012712   0.7770966
   1.4277143  -0.5406433  -1.5741229   0.2839413  -0.3085103   0.1028254
  -0.2341648  -0.0545980  -0.9933437  -1.2503965   0.0258777   0.3067967
   0.1470977  -0.0305226  -0.1560470   0.9164566  -0.6706143   0.2600394
  -0.1036759  -0.5732765  -0.1388689   0.0720473   0.2372038   0.2612255
  -1.5303712   1.2228242  -0.0292814  -0.8004128  -1.0981730   0.4778772
   0.0468515   0.1077443  -0.0373501   0.3367696  -0.3090945  -1.6776101
   0.7533404  -0.1727687  -0.1457404   0.1523232   0.1121890   0.0079612
  -0.5670556  -0.2243009  -0.1199430   0.8976420   1.0545766  -0.2309685
   0.0991202  -0.0602605   0.3324577  -0.0552663  -0.1841582  -0.2191818
   0.0849262   2.1398888  -0.5973176   0.4218452  -0.0922046  -0.3573900
  -0.8460620  -0.6784540   0.6043371  -0.6107440   0.1829657  -0.4015249
   0.0284712  -0.0147778  -0.0457794   1.0938035   0.3137330   0.4829849
   0.5227357   0.1145364   0.7128214   0.0999641   0.0907271  -0.3444326
  -0.4449903   0.3108394   0.8631059  -0.9105459   0.8444791   0.1465480
  -0.1231492   0.2270181   0.1304001  -0.5406444  -0.9940716   0.6524150
  -0.9738044   0.0552391  -0.4033764   0.0930410   0.0881751   0.0997905
   0.7178103   0.9389933   0.2312706   0.0224114   0.4821165   0.1782302
   0.4994818   0.3703788   0.2231845   0.3691584  -0.0642102   0.0324391
  -0.4845816  -0.8346832   0.1249337   0.4247859   0.0024594   0.2072935
   1.0033382   0.6078826  -2.0958727   0.1653613   0.7877367  -0.2792018
   0.0010495   0.0589543  -0.0516446  -0.2520035  -0.5387614  -0.0751008
   0.3357492   1.3518377  -0.1660055  -0.4030093   0.0191224  -0.2595128
   0.6005040  -0.9388146  -0.8583400   0.3839807   0.0575395   1.6866265
  -0.1264252   0.1145913  -0.1799272   1.3039690  -0.6373120   0.4075882
   0.2332174  -0.2077418   0.2038689  -0.2218056  -0.2113855   0.1691549
  -0.2382790  -0.3293133  -0.1415025   0.5972543  -0.6452801  -0.3650275
   0.1461943   0.2600759  -0.3370237   0.7422746   1.0200309   1.7440000
  -0.5113302   0.2148544  -0.5014061   0.0259937   0.1960028   0.0842749
   0.8581833  -0.1556653   0.5236454   0.4491370  -0.1295850   0.1224300
   0.1899580   0.1688256  -0.1592009  -0.0880458  -0.7307022   1.2380228
  -0.1589365  -0.2376520  -0.1211760  -0.0087822  -0.2557026   0.0177867
   0.1823903  -1.0851052   0.3335642  -0.2311054   0.2600655  -0.2521275
  -0.0813108  -0.2370379  -0.1804199   0.0845142  -0.2258567  -0.4835982
   0.5554414   0.7219855  -0.8413242  -0.2553325  -0.1482131  -0.0578627
   1.1440928  -0.5371846   0.2735162  -0.2235513   1.3655345   1.6370151
  -0.2060110  -0.2436326  -0.0194590  -0.5246860   1.3780460   1.0351904
   1.0757941   1.3458362   0.3463850  -0.0258899  -0.1368503   0.2305840
  -0.7643578  -0.0385802   0.4485027   0.4212610   0.5070824  -0.0971525
   0.1995300  -0.0492917  -0.1926255   1.6391783   0.2392891   0.3956877
  -0.2059186   0.9211015   1.7905488   0.1544540  -0.0592033   0.0964469
  -1.0516654   0.1742257   0.3367774   0.3376267  -0.5499773  -0.5475774
  -0.3122087   0.1538271   0.0765447   0.7536715  -0.8388365  -0.5400609
   0.2539564   0.3286684  -1.9721863  -0.2535978   0.1009358   0.1066721
   0.3645050   0.0960088  -0.4470495  -1.0159718   0.5295191  -0.2427247
   0.0895650  -0.2063504   0.1575340   0.5637026  -0.7417215  -0.6103122
  -0.8640647   1.5263904   0.5868110  -0.1050897  -0.0907209  -0.1969678
  -0.1530399   0.3422906   0.3769108  -0.3629003  -1.6123307   0.8796621
  -0.1966722   0.2955295   0.1731125  -0.5155855  -0.7718319   0.6568840
   0.1593917  -1.2980695  -0.8362123  -0.2203754  -0.1853637   0.5834653
  -0.4042904   1.3688670   0.7024571  -0.8803860   0.8897029   0.7668282
  -0.0568363   0.3432624  -0.1400157   0.5570344  -1.4050934   0.0139295
   0.1626876  -0.0388737   1.3645104   0.2729407   0.3154878  -0.0948237
  -0.2183171  -0.1057707  -0.3751120   0.1267984  -0.4874146  -0.4438807
  -0.1324213  -0.2073417   0.1667885  -0.1530623  -0.6002405  -0.2385750
   0.6802445  -0.2642809   0.1582114   0.0176708   0.0145702   0.5294375
   1.5860256   0.5297810  -1.0552579  -0.5088898  -0.2566154  -0.1624254
   0.1221454   0.0552727   0.0840452  -0.3349038  -0.0706742  -0.0731192
   0.5526796   0.3535623  -0.6722130   0.0268219   0.0529805   0.1905489
  -0.3061899  -0.6499403   0.9880017  -0.3657520  -0.9058802  -0.0947128
  -0.0290609   0.1695997  -0.2233102   0.5001418  -0.8725360   0.8523875
   0.0187496   0.6056481   0.8859896   0.0401623  -0.2413564  -0.1086366
  -0.7533575   0.1905103  -1.5782567  -0.2466488  -1.2259887  -0.3731695
  -0.1871249  -0.1108284  -0.1750140   0.1049248   1.5111946   1.3648403
   0.0735146   0.2944666  -0.5439187   0.0251272  -0.0553002  -0.0749030
   0.3601284   0.5410629   0.1805590  -0.0952768  -0.6330638  -0.2789568
  -0.3348240  -0.0939708  -0.3930079   1.3839861   0.1534510  -0.3635182
   0.4552592  -0.0997957  -0.1022886   0.2365594   0.0611446  -0.1847944
   1.3271734  -0.0293286  -0.0508730  -1.6243584  -0.2532169  -0.2410905
   0.0143629   0.0126320  -0.0145507   0.3021957   0.2039694  -0.1264197
   0.0865637  -0.5020375  -0.5799744  -0.5255662   0.2924240  -0.0812406
   0.0182512  -0.9913655   0.0564911   0.1329833   0.2428469  -0.1158279
  -0.2621028  -0.1061884   0.0079876   0.0402237   0.8526447  -0.4896565
  -0.3683298   1.5901651  -0.0176974  -0.2056303  -0.0539496   0.0460682
  -0.5357783   0.7765434  -0.2643949  -0.7521798   0.1565115  -1.0332928
   0.0459721  -0.4453532  -0.1968834  -0.9507064  -0.0306414  -0.1444893
  -0.4072216   0.5028751  -0.5430167  -0.1532802   0.0876065  -0.0836911
  -0.7331916  -0.7543330  -1.7967712   0.2374196  -0.2020919  -0.1071056
   0.2872832  -0.0507457  -0.0807653   0.1430916  -0.0214163  -0.4575494
  -0.2550175  -1.5660927  -0.2941676   0.1583691   0.2234795  -0.1975333
   0.3044003  -0.5609616  -0.1471633  -0.5372599   0.0285823  -1.1209698
   0.4520905  -0.0189388   0.1099956  -1.6938022  -0.8559223  -0.4194348
  -0.7254033   0.1023507   0.0933165   0.1212698   0.3752010  -0.0733160
   1.9268665  -0.9132362  -0.8449524  -0.0406196  -0.8472082   0.8013843
  -0.2175727   0.0257250   0.1507779  -0.2043795   0.0513806  -0.6721784
  -0.5872508  -0.1845883   0.9112394   0.4008031   0.1090644   0.0573797
   0.5112738  -0.4800764   0.0764466   0.8305269  -0.1397590   0.8458237
  -0.1378694   0.3365967   0.2581484  -0.9107350  -0.4194864  -1.2461433
   0.5530573  -0.6380711   1.8537845   0.3826833  -0.1820046  -0.4267086
  -0.2806626   0.3197097  -0.8782508   0.4564085   0.6206548   0.7030770
  -0.0369555   0.2389977   0.2602067   0.4262419   0.3429012   0.7346455
  -0.7241791   0.8808327  -0.6126652   0.1501208   0.1702522   0.2776501
  -0.1410284  -1.0370075   1.0486659  -0.0624547   0.9864224  -0.4839784
   0.2578959  -0.2238534   0.1920514  -0.3052536  -1.0418126  -0.0196325
  -0.3370279   0.5586106   0.6675568  -0.0898270  -0.2631292   0.0280230
   1.4614094  -0.1730360  -1.5181951   0.3183941   1.0512479  -0.6830771
  -0.3160505   0.1337015   0.2081521   0.6874332  -1.0406147  -0.3212781
  -0.2352739  -0.6924404  -0.8716741  -0.3673838  -0.1570430  -0.5082689
  -0.5848022  -0.3270172  -0.7248845  -0.0364005   0.0578878  -0.8722567
  -0.2389606  -0.1648782   0.1653855   0.7639361   0.0403512  -0.6898780
  -0.0594620  -0.5408819   1.1218628   0.0228797  -0.1457005   0.2394563
  -0.1921247   0.8519181  -1.1254171   0.2139938   1.6172303   0.8609106
  -0.2622519  -0.0085749   0.0605970   0.4147919   0.5757412   0.3165796
  -0.4845259  -0.0686126  -0.5898127   0.2278992   0.1168979  -0.1256977
   0.6436607   0.1449447  -0.5794478  -0.6985351  -1.3647770  -0.1325712
  -0.3072353  -0.0579411   0.1608475  -1.5065698   0.0763338   0.4930724
   0.6724622   0.5710306   1.2912396   0.1858733   0.0501092   0.1747704
   1.2110377   0.3291318  -0.5728803   0.2563244   0.0091361   0.7531530
   0.2559762   0.0829797  -0.4389657  -1.0697950  -0.5935511  -1.2526804
  -0.5168791  -0.1868828   0.5153511  -0.0613721   0.2166829  -0.0884059
  -0.2686757  -0.2103638   0.5661287  -0.6249615   0.6323413   0.3482702
   0.2898150   0.2260936   0.0715978   1.1237359  -1.2511990  -0.2685840
  -0.1194075  -1.3796842  -0.5357858   0.1299050  -0.0281423  -0.1147675
  -0.6031755  -0.3084485  -0.3287111  -1.0965780   1.0947685   1.1271545
   0.1825398  -0.2586393   0.1159833   1.0531503  -0.4906999  -1.4899166
   1.0387173   0.7750384  -0.2231249  -0.2054959  -0.3197182  -0.3121483
   0.1705785   0.9719082   0.2518040   1.0573943  -0.7347496   0.6082003
  -0.3081760   0.0239450  -0.2222997   0.2523080   0.3228323   0.4236109
  -0.1136235  -0.9148060  -0.2441743   0.0626197  -0.1015815   0.0699774
   0.6720449  -1.2644628   0.0478136  -0.4008637   0.1250004   0.3522178
  -0.3015338  -0.0285779  -0.0341351   0.2407086   0.2041611  -0.8597674
  -0.5472113   0.6060817  -0.4788818   0.0446476  -0.0246084  -0.4914891
   0.3813049  -1.1715164  -0.6871647   1.3649037   0.3046518  -0.0526699
   0.0476560   0.0505552  -0.0020977  -0.5778043  -0.1178385  -0.3975496
   0.5896384  -0.7750923  -0.4130779   0.1676547  -0.1240185  -0.4503810
  -0.5377850   0.0761037  -0.0558743  -0.4298056  -1.2410340  -0.2164052
   0.1608767  -0.0277126   0.1663364  -0.3440482   0.8136998   0.7776172
   0.2372493   0.7602652  -0.2271460  -0.3739509   0.1448607   0.0548631
   1.3306199   0.5215027  -0.0195490  -0.2896907   1.0348078   1.7002497
  -0.2235740  -0.3848454  -0.1672234  -0.7201825   0.0084085   1.2324684
   0.2755947   0.2770729   0.1746101  -0.0888293   0.1064794  -0.2580050
  -0.7133167  -1.1192206  -0.9078554   0.9916189   0.8060101  -0.6074129
  -0.0440382  -0.2865515   0.1363335  -0.8556982   0.3601060   0.5575572
   0.1870489  -0.7432690  -0.2628995  -0.1503604   0.2990474   0.2138145
   1.1339826  -0.1778532   1.4172705  -1.8454306  -0.6495106   0.0730298
   0.0020538  -0.0433643  -0.2063532  -0.8443090  -1.5152269   0.1837808
  -0.7778085  -0.3622660   0.2237344  -0.0386709   0.0108369   0.1946004
   0.9270856  -0.3469045  -0.4631360  -0.0762173   0.2767578  -0.4060556
  -0.0375768   0.2403223  -0.1059583   0.7275102   1.3746609   0.5001094
  -0.1561875   0.0382994  -0.2153193   0.1176305   0.0492614  -0.0376230
  -0.5541926  -1.3605768  -0.6590316  -0.0387558   0.1089762   1.9329223
  -0.1281535  -0.1496152  -0.0605376   0.1847252  -0.2763303  -0.4307087
   1.9769789   0.4822591  -0.2035572   0.1743739  -0.0123852  -0.2149871
   0.3858199   0.5980001   0.3518242  -0.1930725   1.3978871   1.3073381
  -0.1031171   0.1141754  -0.0704492   0.9766149   0.2221360   0.3887943
   0.4451322  -0.4097503   0.1142035   0.0237779   0.2348561   0.2325823
  -0.5888645   1.6759173   1.8030772  -0.3122197  -0.2405388  -0.1197111
   0.2059348   0.1531927  -0.0199385   0.7544796   1.1272726  -0.0434072
  -1.5075869  -0.8064272   1.2002779   0.1041772  -0.1424001  -0.0080236
  -0.6256795   0.7217853   0.8768505  -2.2606569  -0.0779381  -0.2794138
   0.0650189  -0.1702593  -0.1558221  -0.1991093   0.7864716  -0.0508947
  -0.0305063   0.1774692  -0.0557526  -0.2243004  -0.1403695  -0.1553853
  -0.4085610  -1.2611295  -0.5255886   2.1115493  -0.4864446   0.0408467
  -0.0566597   0.0661983  -0.0874085   1.7329755  -0.0943784   0.3409866
  -0.1140711   0.6314282  -0.1943940   0.3144269   0.2164705   0.1779214
   0.1018840   0.3117753  -0.2908734  -0.5438869   0.7631344   0.0758632
  -0.0064506  -0.0247415  -0.0500819   0.0221185  -0.8848465  -1.9992026
  -0.2027266   0.5814419   1.2118772  -0.1854913  -0.2782278  -0.0667202
  -0.8611764   1.1393655   0.5113376  -0.2976115   0.1549649   1.2858224
   0.1168000  -0.1025719   0.0304998  -0.1788123   0.8317033   0.2433169
   0.7208944   1.0824317   0.5617685   0.1564644  -0.3029641  -0.6405624
  -0.3120156  -0.4883399   0.6727360   1.1687240  -1.9400529   0.1929875
   0.2392525   0.1040814  -0.3484661  -1.2549934   0.2875247  -0.5746239
   0.2958574  -0.2177411  -1.0157803  -0.3235972  -0.2263276  -0.0230340
  -0.1327111   0.8838354  -0.2764881  -0.3935429  -0.1122028  -0.7444784
   0.0250262   0.0401542  -0.1364537   0.5149144   0.1218264  -0.8885305
   0.1125626   0.7442790   1.1279788   0.1047839   0.2904043   0.0433282
  -0.9781396  -0.6935514   0.5095925  -0.6769114  -0.3484165   0.5084382
  -0.1572072  -0.0687527  -0.2640987   0.1318132   0.4429616   0.5052443
   0.2356855  -0.5152961  -0.3262872  -0.0601667  -0.0008138  -0.0771965
  -0.6227897  -0.5788556  -0.5077134   0.1474752  -0.5196625   0.2870694
   0.1231776  -0.1321716   0.1149943   1.1680246   0.1940192   0.4926452
  -0.0352850  -0.2385875   0.0752244   0.1741636  -0.2227657  -0.3585533
   0.1561169   0.5515230  -0.1870878   0.7953175  -0.8947985   0.0671801
  -0.1206265   0.1270494  -0.1046827  -0.0842643   0.7213018  -0.8033445
   2.2020667  -0.7087713   0.5475700   0.4365642  -0.0548528   0.0229103
  -2.1073584  -1.8385968  -1.2177117   1.1650525   0.7909299   0.5450946
   0.1490805   0.0586821  -0.0505292  -0.8529185   0.0909857   0.4255613
  -0.1420532  -0.9535867  -0.1288848   0.0599256   0.2861806   0.1764362
  -0.6720091   1.2757657  -0.2537160  -0.5391595   1.4041274   0.1599619
   0.3608517   0.1953030   0.2401013   0.2925563  -0.5892753   0.0454010
  -0.8493531  -0.0509209  -0.2168371   0.1460985   0.1679500   0.4514149
   0.4897464  -0.2696449   0.9476718  -0.1736442  -1.5112500  -1.5537609
   0.0358326  -0.2659815   0.0909531  -0.6025979   1.2122306  -1.8706192
   0.0194815  -0.7119142   0.2174125  -0.2464629  -0.0047920  -0.0278983
   0.0472366  -1.2502684   0.4417861  -0.8400671   0.0730814   0.5252285
   0.3141846  -0.3662580  -0.1368750  -0.4504343   0.2322253  -1.3048904
   0.8371932  -0.3365314   0.3884693   0.2630220  -0.1772085  -0.1414276
  -0.7958913  -0.5483398   0.0667760  -0.3133503  -0.4261199  -1.2806403
  -0.1636444   0.1779858  -0.0935080   0.2853254  -1.3864632   0.8098630
   0.8863513   0.0896502   1.8287974  -0.2190117  -0.0092566   0.2343440
  -0.3233977  -0.9626051   0.1325934  -1.2762592  -1.5116869   0.8502181
   0.1339388   0.0870147  -0.0414450   0.1691658  -0.5325019  -0.2609180
   0.3170797  -1.2075592  -0.0661217   0.1270168  -0.2052054  -0.3232867
  -0.6316088   0.1387858  -0.0689062  -0.1742373   0.4795390  -0.6059091
   0.3196720   0.0290892   0.4117383  -1.1239968  -1.4255501  -0.4201956
   0.5595562   0.4939150  -0.7228354   0.1021557   0.3136487   0.1814262
  -0.7551607  -0.2749192  -0.7884736   1.1823811   1.5602021   0.7518697
   0.1877130  -0.1375695   0.0057058   0.3723818  -0.2295870  -0.9598803
   0.8595284  -0.7647045  -0.2589753  -0.5116508  -0.0356017   0.2749029
  -0.5396364   0.4962685   0.1580920   0.0261008  -0.4018351  -1.3256219
  -0.0300033   0.2511249   0.2264193  -0.4046413  -0.9883032  -0.8291923
  -0.1460109   0.8572547  -0.8675451  -0.2123847   0.3325211  -0.3531833
   0.4434431   0.7309935   0.0978088  -0.6812298  -1.8016143  -0.0578523
  -0.3407731  -0.0471786   0.3754340  -0.0148720  -0.2142212  -0.0785965
  -0.5232466   0.8639827  -0.0450668  -0.1500881   0.3013353  -0.1803808
   0.5881819   0.3182978  -1.2486554  -0.8629960  -0.0219340   0.4609898
   0.0160411   0.0807534  -0.1830034  -0.6557075   0.6799355   0.6296291
  -0.7897550  -0.9323545  -0.5026328  -0.0775165   0.1820996   0.3430789
  -0.5261658   0.4379799  -0.9103001  -0.7441418  -0.5320756  -0.2031297
  -0.2775705  -0.1014623   0.1881892  -0.6020589   0.2723461   1.1740134
   0.4627987   0.0389157  -1.0887174   0.1820128   0.0690260  -0.3985028
  -0.8385739   0.7777547  -1.1772967  -0.0493419   1.1159708   0.3821196
   0.1643351  -0.1600285  -0.1575492   0.7589730   1.6223172   0.9851005
  -0.7541049   0.0842676  -0.5879492  -0.0424533  -0.0278536  -0.1803444
  -0.4226206  -0.6015270  -0.4852209  -0.0378673  -0.9983809   0.4076143
   0.0176830  -0.2545728  -0.2327229   0.0080309  -0.6916413  -0.2820726
   0.0642801   0.1721963  -0.3975710  -0.4785601   0.2493394   0.0529664
   0.1863389   0.1267042   0.5505992   0.8670425   0.5281892   0.7401969
  -0.1664477   0.0539515   0.2311798  -0.2202286   0.3804404  -0.3585848
  -0.9471409  -0.1961430  -0.9397392   0.0046884  -0.0794822   0.0164484
   0.7592217  -0.3370612   0.7075090  -0.3084221   1.0557524   0.0669944
  -0.2182440  -0.0216271  -0.0261232   0.2609275  -0.3034229  -0.1448484
   0.4368080  -0.4432753  -0.2363591  -0.0355335   0.5841603  -0.2294390
  -0.5997563   0.4360798  -0.9290064  -0.8427815   0.5104605   0.4721135
   0.1516923   0.0153380   0.4428500   0.1718245  -0.4501701   1.3068547
  -0.5854332  -0.9556347   0.4285100  -0.0605279   0.0163235   0.4828721
  -1.2996325   0.1099598   1.6532423   0.4782960   0.3676934   0.0427085
  -0.0768619  -0.0412568  -0.0072404  -0.2400517  -0.6560629  -0.2310331
   0.5662708  -0.3816873   0.4761047   0.0880106  -0.0975287   0.2211350
  -0.5472129  -0.6718584  -0.6675888  -1.1148006  -0.0659733   0.0097436
   0.3955988  -0.0517518   0.2179471  -0.8737612   0.9659017   0.1382363
  -0.7219790  -0.6126421   0.3560446   0.1805716  -0.1145972  -0.0524181
   0.6181447  -0.6507265   0.9158466  -0.4432342   0.1042685   0.2017451
   0.0473654  -0.0325546  -0.1088283  -0.5757768  -0.2531190   0.3656561
  -0.1065173  -0.8739423  -0.5667570  -0.0557400   0.2205037   0.2958212
  -0.4532222   0.1738171  -0.3353569   0.2297437  -1.0521147   1.0531829
  -0.0803091  -0.0417359   0.1179039   0.1877786   0.2185869  -0.9625291
   0.5195966   0.6161596  -0.5333126   0.0208590   0.1147336   0.0998567
   0.2045390   1.1592169  -1.0014988  -0.2975887  -0.5734986  -0.6313357
   0.0908549   0.0082471  -0.0243616   0.9042585   0.7970267  -0.3213848
  -0.0600965  -0.2340926   0.8387730   0.3208100   0.0809474  -0.1394387
  -0.9701975   0.4539720   0.7533277   0.3743312   1.4652619   0.3226979
   0.0687864   0.1249259  -0.0692226  -0.3891570   0.9070712   0.4325202
   0.5653191   0.6015479   1.4300254   0.1725477   0.3593064  -0.0998478
  -0.8156437   0.7700686  -0.7248280  -0.8919039  -0.2394593   0.6130816
   0.1397897   0.3462645  -0.0690689   0.2228463   0.2786979   0.4488073
  -0.7186455  -0.1304887  -0.1062782   0.0431478   0.2432760  -0.0598189
  -0.2052179   0.4319348  -0.6169306  -0.3268661  -0.0031627  -0.4788382
  -0.1889538  -0.0841487   0.0517100   0.1377675   1.1876331   0.7508624
   0.7321832   0.6657264   0.2706730   0.2111173  -0.0415859  -0.1179087
   0.1056151  -0.7397723  -0.1591431  -0.8485176  -0.4111125  -0.1240400
   0.1920759  -0.1856196  -0.1084864  -0.1510063   0.5441910  -1.0074168
  -0.0421092  -1.1950168  -0.3880669   0.3552055   0.1446566   0.0383294
   0.2020091   0.1917989  -0.6407431  -0.5310771  -0.1254303   1.1413327
   0.1255905   0.2944889   0.0898980  -1.1210313   0.0280550  -0.9195609
  -0.0187351  -0.9298219  -0.2409342  -0.1138643   0.0774197  -0.1141349
   0.1839445  -0.7274019   0.2913381  -0.7116247  -0.3552250   0.2817198
  -0.3286981  -0.1064006  -0.0179699  -0.6802579  -0.1576515   0.1198150
   0.0533937  -0.6488977  -0.7471189  -0.2179988   0.1370862  -0.0036461
  -0.4682347  -0.6589832   0.4281638   0.1770545   0.3318412   0.3467508
  -0.1604880   0.0621771  -0.2856625  -1.0572168   0.1608358  -0.4277534
   0.1665864   0.9286832   1.3248845   0.1877706   0.0925912   0.1122408
  -0.7304261  -0.1115720   0.6702201   1.1981416   0.3564344   0.8750057
   0.1887101   0.0229825   0.3021246  -0.2150504   0.6472226  -0.8894291
   0.4708910  -1.2891461   1.1873309   0.0706478  -0.0012253  -0.3270003
   0.3555338   0.1162971   0.7348135   0.3166822  -0.8645292  -0.8800104
  -0.0267106  -0.0519882  -0.0677963  -0.0054961   2.0775650  -0.0994690
  -0.2778198   0.5816274  -0.4236641   0.0877361  -0.1075254  -0.2675534
  -0.4428639   0.4622242  -0.0232362   0.6716553   0.2214963  -0.2443556
  -0.0883805   0.1095013   0.0418217  -1.3386253  -0.6234876   0.2957866
   1.5186119  -0.0008650  -0.4118337   0.1708644  -0.1143644  -0.1307542
   0.1252880  -1.1535090  -0.5247603  -0.6707351  -1.4841020   0.2621851
   0.0548828  -0.1046016   0.0316320  -0.6096629   0.0647998  -0.0021230
  -0.6840758   0.5739232   0.3427038   0.1765538   0.1625980   0.2402464
   1.0175871   2.7308187  -0.7075300   0.4204527   0.7628881   0.1518512
   0.3415693   0.4700251   0.3344516  -0.0284075   0.3226697   0.8953816
  -0.0127792   0.3522004   0.9993416   0.0796553  -0.1093289  -0.0701262
  -0.0412877  -1.2075270  -0.7804843  -0.0893781  -0.8075546   1.4228902
  -0.3199288   0.1276570   0.1367819  -0.1891625   0.1092847  -0.3436024
   0.5881436   0.7306832   0.0164343   0.0134584   0.4033496  -0.0584894
   1.0274465  -1.0602738  -0.6704201   1.1284933   1.0311227  -0.2163826
  -0.0310924   0.0487438  -0.1630066  -0.5116140  -0.8708301  -0.9055160
   0.4571775   0.7085516   0.9713624   0.3823040   0.1103201   0.1148795
   0.0344110  -0.6768755  -0.4999335   0.4163106  -1.5081608   0.8741092
   0.0948031   0.1481549   0.0574990  -0.2859922  -0.2407765   0.7565679
  -0.2990136  -0.1146856  -1.3717175   0.1268560   0.2132022  -0.3142325
  -0.9079839   0.3790549   0.9807196  -0.3387774   0.9893233  -1.5835451
  -0.1502678  -0.0377392   0.1817374   1.1330910  -0.2503319  -0.2667481
  -0.4047159   0.7069066  -0.5043754  -0.3223505   0.0096261  -0.1322447
   0.7299969   0.3828472   0.8414218   1.2155020  -0.1141192   1.2629608
  -0.0437621  -0.0868158  -0.4967278   0.2495894  -0.1483892  -0.6338725
  -0.0215839  -0.5809027   0.8620120   0.3601849  -0.2807752  -0.3416221
  -0.9795972  -0.0011818   0.6407183  -1.1423778   0.9995802   0.1928182
   0.1552768  -0.2673114  -0.0558010   1.1157347   0.5021130   0.0744693
   0.5031095   0.4979645  -0.7850733  -0.1890097  -0.1327679  -0.0834590
  -0.5794471  -0.0686158   0.4976210   0.5088071   0.7892978  -0.8401622
   0.3578718  -0.1504362   0.2959489  -0.6275729  -0.2868050  -0.2068390
  -0.2835644   0.0002537   0.2274937  -0.1414514  -0.3581409  -0.3077050
  -0.0292547   0.1312297  -0.0560130  -0.2305021   0.6523867   1.8093676
  -0.2378702  -0.1639527  -0.2617483   1.6036884  -1.2355163  -0.4728586
  -2.1502280  -0.2703302  -0.4021491  -0.1474804  -0.0865630   0.2492765
  -0.8261270   0.2790619   0.1393256   0.7146268   0.0841231  -0.3068411
   0.1535956   0.1310273   0.1301051  -0.1110463   1.7947627  -0.1664464
  -0.3802971   0.8426209   1.0276790   0.2175267   0.0088376  -0.2138954
   0.1545713   1.4166466   0.9277235  -2.3669676  -0.4302095  -0.4600839
   0.0821044  -0.0844887   0.1406400  -0.3113377   0.9385318  -0.7957767
   0.6118051  -0.1480381   1.0747274  -0.3148911  -0.3040467  -0.2283757
   0.4696317   0.2118632  -0.4314977   0.8193239   0.2817767   1.2387260
  -0.0317574  -0.0752805  -0.0123303  -0.1868988  -0.2598784  -0.6261813
  -0.6575036  -2.4052250   0.4107799  -0.0645884  -0.2513124  -0.2782558
   0.4858575   0.2237219  -0.1221068  -0.0800923   1.0190425  -0.8799007
  -0.2007635   0.0088949   0.2133745  -1.4031751   1.0008402  -0.7284698
  -1.1606423   0.3798340  -0.3526828   0.1293831   0.0012838   0.1078611
   1.0743353  -0.0205138   1.0246086  -0.3545425  -1.2732550   0.2504892
  -0.1378025  -0.3015956   0.2746630  -0.7313979  -0.1496254  -0.2296485
   0.4096371  -0.8955818   0.0246746  -0.0629270   0.0624294   0.1842910
  -0.6963408  -1.5688236  -0.0548271   0.2479559  -0.7555384   0.2750249
  -0.2177032   0.0647956  -0.1763596   0.1590672   0.4604026   1.1415999
  -1.2896718   0.2338620   0.9573530  -0.0577156   0.0286759  -0.0301873
  -0.9714910  -1.8613692   0.2720884  -0.3550071  -2.3707038  -0.5230569
  -0.0546503   0.1316569   0.3490985  -1.7626781   0.8981898  -0.3915775
   0.2221062  -0.5820764   0.5921016   0.3118855   0.2058938   0.0304829
   0.4737549   0.5660893   1.1071322   0.6063090  -0.2927145   0.3042831
  -0.1607245   0.1253295  -0.0569110  -0.5209664   1.1334629   0.1950673
  -0.7894020  -1.8485103  -1.5930330  -0.0414129  -0.1017248  -0.1718374
   0.9156820  -0.6914304   0.4871440  -0.3207381   1.4963742   0.3543736
  -0.0508451   0.2075230   0.1413242   0.3527719  -1.7185027   0.4786392
   0.6761225  -0.4564574   0.9647623   0.1427584   0.1566223  -0.2340424
  -1.3636575   0.1028670   1.2889245   0.2430147   2.0735247  -0.1827735
   0.0834680   0.0795170  -0.1854641  -0.4931022   0.6345498   0.9362929
   1.1937153  -0.5334724  -0.6530624   0.0251268  -0.0266617  -0.0710003
  -0.2253640  -0.6796313   1.4919966   0.9147016  -0.5734434   0.9042286
  -0.0244952  -0.1033291  -0.1532974  -0.0437652  -0.3543360   0.9029691
  -1.0046531   0.6206683  -0.1266470   0.0684953  -0.0755852  -0.0933531
  -0.5626845   1.3844175  -0.2528700   0.8211950  -0.8487036  -1.7433831
   0.1782854  -0.1806718   0.4002570  -0.4434118  -1.8197031   2.0761405
   0.5701698  -0.1047444   0.7199386   0.1402794   0.2000407   0.5300633
  -1.1378681  -0.0313954  -0.1603013  -0.0027923  -0.5398115   0.5937845
   0.1875226  -0.1018272   0.5098798  -0.0282525  -0.1825930  -1.0960608
   0.8808022  -0.4302336   0.8158384   0.2309683  -0.4151083  -0.0157865
  -0.5071937   0.2513281   1.2115949  -0.1686932  -0.8257312   0.0432330
   0.1026899   0.1107226   0.0688692  -0.8131529  -0.2341664  -0.0566433
  -1.2789270  -0.9417043  -1.2063191  -0.1168721  -0.2054410   0.1802754
  -1.1369217   0.4289646  -0.2732097  -0.7289863   0.9585896   0.2267558
  -0.4918302  -0.1875213   0.2065281   0.1199155  -0.6548966   0.4382820
  -0.2604573  -1.3265327   0.1417715   0.1310750   0.1737155  -0.2710288
  -0.1293600   1.1175687  -0.6416964  -0.6029976   1.5114051  -0.4574626
  -0.0123749  -0.0450517   0.1155300  -0.5881845  -0.8387365  -1.0857536
   0.6316560   0.6583582   0.3915269   0.0448574  -0.1005604  -0.2660814
   0.2878333   0.2354966   0.1976152  -1.2925254   1.5602579   0.8289774
  -0.1093197   0.0242105  -0.0395547  -0.1368687  -0.0585814   1.1406461
   0.9027683  -0.6100583  -0.8198064  -0.1212549   0.1388890   0.0731515
  -0.4019462   0.6498869   1.9883556  -2.3643201  -0.0705684  -0.7883757
  -0.1736145   0.1472500  -0.0936532   0.4026971  -0.0749971   1.0855039
   0.1389763  -0.0747936   0.4751688   0.1192326   0.1311705  -0.1501010
  -0.2858762   1.1165359   0.0174954   0.8722809  -0.7573102  -0.5534685
   0.5319571   0.4175847  -0.0041102   1.2241457   0.1098780   0.0517203
  -0.3145622  -1.4414122  -0.9564686   0.0396999   0.3669793   0.0433330
   1.2448408  -0.5829169  -0.1142894   0.3582315  -1.3387063   0.6016953
  -0.3634607  -0.3023200   0.2455563  -1.5297862  -1.0752090   0.0571280
   0.4000656  -0.0539665  -0.1457230   0.0368987  -0.0382467   0.0981000
   0.7876723  -0.2423765   0.1218248  -0.2028202   0.4582148   0.0467529
  -0.1844963  -0.1089761   0.1362360   0.9486112   0.5310852   0.9271710
   1.1808480  -0.7506573  -0.2195314   0.0879641   0.1649079   0.0998387
   0.4972630   0.8952788  -0.6100471   0.6070764  -0.5086038  -0.0145693
   0.2660432  -0.0744052   0.0844998  -0.4846051  -1.0598604  -0.3095727
   1.4166759  -0.3251317  -0.7688173   0.0760386   0.4381509  -0.2796387
   0.2052448  -0.2015623   0.5075162  -0.3327649  -0.2583261  -0.5734679
  -0.0237224  -0.0638456  -0.0499551   0.0033842  -0.9696468   0.3487307
   0.1021995  -0.5062529   0.2560323   0.1333623   0.0963107   0.0617783
  -0.5650591   1.3618794  -0.5632742  -0.8874479  -0.6586393   0.0020342
  -0.0599001   0.2362089  -0.0143377   0.6126556  -0.0346409  -0.4056102
   0.1553130   0.0124141   0.5496536   0.2033104   0.2026856  -0.2430225
  -0.3698161  -0.3082140  -0.2542855   0.5957164  -0.2992859  -0.2314404
  -0.2358893   0.1119924  -0.0531067  -0.5961649   0.7352180   0.3947059
   0.6297791   1.4859266  -0.3613474   0.3998944   0.0689655  -0.0660289
  -0.2857132  -0.4439872  -0.0335050  -0.3749649   0.3468750  -0.8328609
   0.1729457  -0.0246951  -0.0047072  -0.6350120  -0.2284546   0.3887113
  -0.2157685   0.8567055  -0.1511169  -0.3219369  -0.1627487   0.0048309
  -1.1166613   0.4888335  -0.1360956  -0.0318182   0.3618239   1.4607413
   0.1075965   0.0525582   0.1867415   0.5785512   0.8372486   0.7344178
  -1.1669094  -1.0679602  -1.1547953  -0.0035881  -0.1952270  -0.2401539
  -0.9826347  -0.5682590   0.1177422  -0.2812502  -1.4744020  -0.2564372
  -0.1708477   0.2396425   0.3314016  -0.3492684   0.6376392   0.7806469
   0.4204570   0.2364382   0.1850423   0.0365107   0.2680627   0.1206291
   0.5175554   0.8093947   0.4492961   0.5874903   0.6459617   0.4447667
   0.0352438   0.2241320  -0.2245486   0.6646756   0.5308910  -0.1587501
   0.1752286  -0.1271954  -0.2372957  -0.0290115  -0.1758042   0.0411650
   0.0280462  -0.0565664  -1.3092522   0.7375179   0.4333530   0.3522151
   0.3551917   0.2139105  -0.1585419   0.8634288  -0.0698673   0.1745790
   0.6609689   1.4390097   0.0013773   0.1007996   0.2961029  -0.0426689
   0.6856764   0.9195178   0.9457432  -0.0852369  -1.6442104   0.4241705
   0.1261027  -0.2918484   0.1409094   0.8415505   0.6395919   0.0558080
  -1.3487959   0.5882438   0.8188925   0.0321101  -0.0068827  -0.1995407
  -0.0828962  -0.3022873  -0.1409269  -1.2125092  -0.5412352   1.0907906
   0.0116212   0.0753602  -0.2378380   0.3209939   0.4361069   0.5505953
  -0.3186117  -0.5650616  -0.8994554  -0.0130875   0.2130034   0.0466636
   0.2503618  -0.3363552  -0.3026984  -0.4392628  -0.6988660  -1.0793813
  -0.1141830  -0.1138536  -0.0283671   0.9532007   1.2581450  -0.3684605
   1.0419542  -1.0350349   1.4011946  -0.0826889  -0.0538099   0.0464115
   0.2471781  -0.0188680   0.6970422   0.8349305   0.1865594  -0.4864892
  -0.0291329  -0.2606159  -0.4164925   0.1700849  -0.1285736  -0.1829184
  -1.2184491   1.2483563   0.0130929   0.2524212  -0.1429936   0.1158251
   1.3033424   0.2112135   0.5074310  -0.6070573  -0.3594491  -0.1260166
  -0.1062064  -0.1491180  -0.1532839  -0.4525076  -0.3067019  -1.4675885
   0.1215287   0.4358497  -0.2157373  -0.3795498  -0.2338972   0.4113784
   0.2503848  -1.4111509   0.4422550   1.0274985   1.3037804   0.6142019
  -0.4109411   0.2800636   0.2490046   1.0458890  -0.9863445  -0.6782477
  -0.6086128   0.0538957  -1.4128893  -0.0386020   0.0456552   0.1948654
  -0.9559151   0.8659376  -1.3324270   0.4219703   0.2076649   0.6671872
   0.0194580  -0.0381847   0.2854633   2.2609438   0.5514808  -0.2806109
  -0.5884647   0.0776015   1.3571960   0.3804979  -0.0021152   0.0414486
  -0.9602986  -0.3755122   1.0765979  -0.3438799  -0.1298274   0.4664329
   0.0489199  -0.2251289   0.0883780  -1.1722298  -0.7678315  -0.6070406
  -0.3762884   0.4752447  -0.1734318  -0.0345168  -0.2371285   0.1993173
  -0.0791326  -0.3268358   0.0060010   0.6406763  -0.5238095   1.0311703
   0.1150241  -0.0795110   0.3331049  -1.8061428   0.8853442  -0.0675615
  -1.0714190   0.2289091  -0.3829005  -0.3927267   0.5726626  -0.0300203
  -1.2127319   0.5986440   1.4075270  -0.2000661  -0.2595155   0.5400578
  -0.2255218   0.2455976  -0.2977751  -0.1046819   1.2596480   0.1620771
   0.8584723  -0.0576596   0.3920179   0.1391749   0.1684015   0.0213185
  -0.5799316   0.6508838  -0.0389779   0.6092603  -0.2387064  -0.6927753
  -0.0938917  -0.0942275  -0.3685983  -0.6641155  -0.3374556   0.4679071
   0.4453774   0.5472486   0.1187669   0.3196993  -0.1794247  -0.0812894
  -0.3517283  -0.4625031   0.6783005   0.3740937  -0.4183348   0.0394281
  -0.1673496  -0.0459332   0.2625215   0.8862383  -0.2926390  -0.4836467
   0.3766423  -0.0240000  -0.1858145   0.0610940   0.1044903  -0.2541478
  -0.2291050  -0.1193929   0.4857807  -0.2238357   0.7891958  -0.0932401
   0.2967420  -0.0139186  -0.1109023  -0.8986174  -0.2672663  -0.0878691
  -0.1388902  -1.5364546  -0.5063393  -0.0737888   0.2495716   0.2878851
   1.2877978   0.3312615  -0.4709819  -0.7116895  -0.7592184   0.2014522
  -0.2217346  -0.1196293   0.0533754   0.2502935  -0.9376426   0.9218809
   0.3891687  -2.1015468  -0.5861787   0.1417485   0.0699045   0.2430193
   1.7013040   0.0815866   0.3386368  -0.1857536  -0.2167237  -0.5423149
  -0.1404810   0.0347410   0.0429448  -0.2283024  -0.3535320  -2.0577186
   0.8165910  -0.7831137   0.1794908   0.0853708   0.0782853   0.2494938
   0.5671029  -0.3489438   1.8127325   0.4630156   0.9997124   0.0798617
  -0.0078434   0.0022021   0.0126236  -0.6469603  -0.4099479   1.1050758
   1.0499936  -0.0684533  -0.1556589  -0.2209834   0.1136389   0.3917630
   0.5151594   0.4219070  -0.6851474  -0.0913978  -0.4923887   0.7201383
   0.0174866   0.0871594  -0.0009480   0.6620110  -0.9765878   0.2282409
  -0.6547102   0.5099535   0.3300226  -0.6581411   0.3905418   0.2003695
  -0.2244876  -0.1267911  -1.0286797  -0.0102099  -0.2827317   0.0526137
   0.1569629  -0.2106671  -0.0692233   0.5781685  -0.6222239   0.1530271
  -1.4965798   0.7069519   0.2374487  -0.2399463  -0.2207297   0.1127122
  -0.5154552   0.3086259  -0.6803746   0.5320612  -0.6333927   0.0318517
   0.0039512   0.1404278   0.2785102   1.4106788  -0.0684792  -0.6563399
   0.2728145   1.1366929   0.6861563   0.0591529   0.3321500  -0.1177311
  -0.2218410   0.1202432  -1.4222000  -1.1088759  -1.1063171  -0.2306647
   0.5470818   0.2746589  -0.0851658   0.5289562  -0.0924357  -1.9380632
  -0.3598030   0.5435864  -1.0600458  -0.0917063   0.2795737   0.0493017
  -0.8734843  -0.1363916   0.2948377   0.2020340   1.6514938  -1.1465365
  -0.1034549   0.2564154  -0.3519640   0.2928316  -0.3291057  -0.5213267
   0.3489953  -0.3420060   0.6116835  -0.0689087  -0.2125143  -0.1661434
  -0.9841528   0.1833596   0.5866053   1.4276129  -0.4422775   0.9769085
   0.3201665   0.0005571  -0.0672409  -0.6483262  -0.1054377   0.4514590
   0.7773520  -0.8688586   0.8308385   0.0528818  -0.2506514  -0.1045322
  -1.3382775   0.3469343   0.0366500  -0.7760128  -0.3540757   0.1754407
  -0.0919230  -0.3722890  -0.1801779   0.9434675   0.7254992   0.1280975
   0.4350621  -0.8745148   0.0712083  -0.0196065   0.0800396  -0.0297904
  -0.5535541   0.1347518   0.5141974   0.5943728   0.4449899  -0.0282455
   0.0364936   0.2529257   0.1392136   0.5878717  -0.9400561   1.0613938
  -0.9054925   0.9060675   0.5614200   0.1255653   0.0180908   0.0379035
  -0.1559040   0.9544180  -0.5359577   0.2999076  -0.8722215  -0.3373404
  -0.0598965  -0.1895411  -0.0241498   0.5605529  -0.3943191  -0.3588031
  -0.5112249   0.7169098   0.4263608   0.1191683   0.1229270  -0.0451779
  -0.3339377   1.1632853   1.4629077   0.1286702  -1.4473101   0.6450261
  -0.2567876  -0.2506483   0.1860358  -0.6510394  -0.0313005  -0.9547674
  -0.2937436  -1.1725009  -0.7889000  -0.1423077  -0.2253254  -0.0397170
   0.8313172  -0.3319016   0.9016256  -0.9096885  -0.0658060   0.3371361
   0.0851436  -0.2956308  -0.1245572  -0.6108841  -1.0551208   0.1043070
   1.2099876  -0.3867196  -0.0222957   0.3329909  -0.0819775   0.0789305
   1.2311712   0.4162626  -0.5524169   0.4675315  -0.5421444  -1.0452029
   0.1032050  -0.2107660   0.0617381   0.4995906  -0.4330298   0.4726109
  -0.2310687  -0.7547021  -0.9223088   0.1331609  -0.1666053   0.3059819
   0.9964727   0.4109456   0.2199309  -0.6053498   0.3933488   0.8373566
   0.2594728   0.1516633  -0.1314302  -0.9261494   0.6414361  -0.4233164
  -0.1232544   0.0826291   0.1710754  -0.2163722  -0.5602936  -0.0659118
   0.4049273   0.7999484  -0.0667365  -1.4462133   0.6193603   1.4476245
   0.0489410   0.1237605  -0.0305431   0.1044976   0.7402296  -0.3818214
  -0.3173899   1.3552454   0.7133591  -0.4872887  -0.1875406   0.2584055
   0.0744406  -0.0111116  -0.3132694   0.0097360   0.3309032   1.6023308
  -0.0254825   0.2289697   0.1012353   0.0419003   0.6778476  -0.8705062
  -0.0392502  -0.8459866  -0.7884561   0.0971437   0.1586682   0.1466196
  -2.0361658   0.8926292  -0.4464700   0.0520056   0.9785202   0.0360861
  -0.1229151   0.2304924  -0.0779306  -0.4695390   0.7607186   0.6552985
  -1.2395128  -0.6506221   0.4715313   0.1130379   0.0542932   0.2748039
   0.1679756  -0.3827759  -1.2805159  -0.8619656  -0.3489312  -0.9640058
  -0.3113595   0.2483202   0.0733180  -0.1688269  -1.3337697  -0.1166804
   0.6033430   0.1323947   0.6627684  -0.0279624  -0.1104637   0.3440713
  -0.0288204   1.3761997   1.5337970  -0.2319778   0.7322713   0.0849487
  -0.4806342  -0.4045316   0.3211542  -0.3424258   0.3560714   0.1917626
   0.8796579   0.5875871  -0.5559927  -0.0359906  -0.2926883   0.3269906
  -1.5003884   0.9802564  -0.4303162  -1.0472076  -0.4019506   0.5467673
   0.0914881  -0.0500576   0.1271084   0.4837128  -0.0815360   0.0053090
  -0.3877594   0.7551268  -0.2308332  -0.2137494  -0.0047991  -0.0390036
   0.2934406   0.7449026  -1.4072174   0.0169174   0.1628988   0.5827176
   0.1846042  -0.0292515   0.1170519  -1.6005990  -0.1257770   0.9296486
   0.7725270   0.7855841  -0.7398131  -0.0675805   0.0728578   0.0123051
  -0.1628973   0.0908875   0.7137650   0.2067087   0.4861806  -0.8447242
  -0.0068263   0.3106862  -0.3101618  -0.1738437   0.2066409  -1.4628595
   0.7699302  -1.1252626  -0.6333968   0.0750707  -0.2308680  -0.1615699
   0.3802461  -0.4664797   0.2498120   0.1480731  -0.6463567  -2.5118924
   0.0787856  -0.0170948   0.0040312   0.6914985   0.4758954   1.1894158
   0.6244018  -0.0554224  -1.9946095   0.1483911  -0.2645234   0.2161435
  -0.7450338  -0.0310322   1.3905545  -1.1351039   0.3784073  -0.4737186
  -0.1504201   0.0976653  -0.0907962  -0.1441288   0.4272778   0.2528628
   1.1447574   1.2265910   0.2530686   0.0867297  -0.0707118   0.0356509
   0.3817440  -1.0387221   0.6626331   0.6498508  -0.3478645  -0.1969833
  -0.1073720   0.0611964  -0.0935213  -0.7461293   0.7572848  -0.4696139
  -0.2873956  -1.2011612   0.1751420  -0.1320173  -0.1436180   0.1091093
  -0.9761454   0.5369967  -0.2873579  -0.8387158   0.6523253   1.2876686
   0.2977322   0.2511882  -0.2010359   0.8164434   0.1022943   0.1780404
   0.1624477  -0.9363509  -1.0872662  -0.1268240  -0.4075809  -0.3112045
   1.0263918  -0.4143219  -0.1948915   0.3115782  -0.7330206  -0.2046391
   0.2584295  -0.1330395  -0.0614314  -0.3702545   0.2276336   0.3539140
  -0.3117977  -0.4110876   0.7014933  -0.0340276  -0.4789153   0.1327190
   2.4063290   0.4452565  -0.3659931  -0.6160038   0.6502244  -0.5036750
  -0.0826277   0.0197593  -0.2786838   0.6900613   0.8120574  -0.9477045
   0.6934398   1.1351101   0.2202536   0.0116137  -0.0311207  -0.1508830
  -0.5992954   0.0525661   0.4411378   0.4360329  -0.9590836  -0.8201784
  -0.1209954   0.0646833   0.3944195  -0.3675042  -0.8922318  -1.5157274
   0.9124608  -0.4823718   0.6969467  -0.3096180   0.1664183   0.2977954
  -0.0958994   0.5822523   0.7709019  -0.9078028  -0.6070869   0.3135782
   0.2301015   0.2123007   0.1569526  -0.8315908   0.3116993   0.4660965
   0.3123815  -0.3280055   0.8161659   0.1102306   0.1265785   0.0558062
  -0.2724543  -0.5687640   0.7712128  -0.0009672  -0.4813404  -0.6159278
  -0.3689468  -0.2158132  -0.0444667   0.4083330  -0.7018694   0.5805216
   0.4341939   0.1712263  -0.2879495  -0.1043721  -0.1397606   0.2660880
   0.4445844   0.9912607   0.3269806   1.0612279   1.2070065   0.2209746
   0.2062196   0.1228514   0.1736718   1.9102875   0.9822917  -0.2406363
   0.0193928   0.0652775   0.3315562   0.0928609  -0.3301810   0.1575485
  -0.8095050  -0.0057361  -0.7700870   0.1748498   0.0124422  -0.6255335
  -0.0246980   0.3572089   0.2104644   0.5714571   1.3875944   0.0785646
   0.3952034  -0.5316136   0.8505265  -0.1196443   0.0111733  -0.0160073
  -0.9146634   1.0339805  -0.0922644  -1.3260693  -0.9865596  -1.3518359
  -0.2924626  -0.3313843  -0.0394772  -0.5604249  -0.4011094   0.0208109
  -0.7494624   0.4558670   0.8443898   0.0236100  -0.3730069   0.1825623
  -0.8647577   0.0771318  -1.0487207  -0.7015038   1.7054897  -0.3645337
   0.1828892   0.0525236   0.1395394   0.2055433  -0.7098449   0.1810867
   1.1951232   0.1690812  -1.4531645  -0.0669187   0.0368984   0.3295055
  -0.3570022  -0.9747116   0.2420368  -0.8317585  -0.6466747  -0.2176962
  -0.0252524  -0.2606984   0.0802354  -0.3861665   1.3100250   0.2777618
   0.0492709   1.7942300   0.0016092   0.1783530  -0.1760093  -0.0815507
   0.3643942   0.2609222  -0.4548357   0.3919931   0.7709700   0.7521005
   0.2601495  -0.0306305  -0.1808518  -0.0207935   0.6226795   1.1093342
   0.5316240   0.6291655   1.6126760   0.1562913   0.1987840  -0.2350094
  -0.7365967  -0.4807145   1.6978531   1.1677384   0.4515354   1.2746799
   0.1706248  -0.0242215  -0.0475507   1.1635626   0.2703665  -0.2918352
  -0.3775415   1.6719687   1.5126510  -0.0411924  -0.0756521   0.0617618
  -0.4265831  -1.6914507   0.4972196  -1.3938382   0.5345518  -1.1721940
   0.1392615   0.0942529  -0.1077037  -0.3992444  -0.6897382   1.7169218
  -0.6442353   1.7112380   0.0620053   0.0449108  -0.3693255  -0.3167622
   1.1065688   0.0565484   0.2794301  -0.4832084   0.0624710   0.6193005
   0.2263820  -0.3595334   0.0507938  -0.6456184  -0.6288138   0.0153584
   0.4551975   0.1982788   0.5337127  -0.0677569   0.3057100  -0.0906526
  -0.3108020  -0.0562468  -0.8866226  -0.7910507   0.6595665   0.0993593
   0.0248747  -0.1072804  -0.0164979  -0.3649772   0.5625453  -0.9053431
  -0.1616769  -0.9788574   1.0249571   0.1820445   0.5718778  -0.0200162
  -0.9848784  -0.0848101   0.7890593  -0.6560714  -1.3275029   0.8585091
   0.0292149   0.2331128  -0.3008339  -0.9654793   0.7850528  -0.7560546
   0.1048159   0.4920839   1.4422951  -0.1717440  -0.0014320   0.4415199
   1.4125570   0.8248194  -0.1363642   0.0263230  -1.2124313   0.5341804
  -0.6699468   0.2757513   0.0806127  -0.9854717  -0.6160301  -0.1349348
   0.3460391   0.0288244  -1.4923645  -0.2123715   0.0784081   0.1735121
   1.1230393  -1.0100757   1.3490226  -0.6323141  -0.0508709  -1.5092285
  -0.1430756  -0.4418531  -0.2117427  -0.6413109  -1.1764153  -0.3734770
  -0.9374674   0.0169420   0.0068601  -0.5243742  -0.0580235  -0.0020329
  -1.2294466  -0.5244281   0.2304206  -0.5205033  -0.6723361   0.1579340
   0.1782618   0.0745795   0.0198065   0.5687530  -0.4566556  -0.2064974
   0.6106836  -0.0968354  -0.5055584  -0.0584053  -0.2020786   0.3418384
  -0.6245588  -1.3098756  -2.3598044   0.0525147  -0.3270729  -0.8843098
  -0.1906874  -0.0886883   0.1615057   0.9775414  -1.4899358   0.1272941
   1.1875298   0.6194687  -0.6581834   0.1761929  -0.3038633   0.0249240
  -0.0935224  -1.2640642   0.8395855   0.3327117  -0.8240262   0.1699096
   0.0824134  -0.1627287   0.1864401   0.6201415  -0.0562105  -0.1943381
  -0.5145115   0.0734236  -0.7783266  -0.0599221   0.2913654   0.2126461
   0.5546635   0.7911212   0.2715688   0.3689265  -0.4961843  -0.8614695
   0.0821191  -0.0104608   0.1126144  -0.6859960   0.0096590  -0.1468795
  -0.2341327  -0.0165096   0.1717898   0.0348494  -0.1366932  -0.1239190
  -0.4389035   0.4766437  -0.7503612   0.1090420   1.2013683  -0.5968079
  -0.1201554  -0.2806448   0.0641095  -0.4241044   0.9074150  -0.2196093
   0.2182877   2.5886223   1.1294645  -0.0837465   0.0578449  -0.2021601
  -0.0397977  -0.9347834   0.3497863  -0.0810971  -0.2569477   0.0598527
   0.0598430   0.0454261  -0.0168685   0.3195906   0.4019272   0.2600071
  -0.2278334   0.3319292  -1.0489417   0.3994100  -0.4247202   0.2735532
  -0.3905152  -0.4055658   0.2010701  -0.1435928  -0.6748223   0.3732313
  -0.0211260   0.1978091   0.2445236   0.3297159   0.3625522   0.8760199
   1.0234077   1.0286534  -0.3344640  -0.1451691   0.3707591  -0.1343788
   0.9942120   0.2607792  -0.9219873  -0.7666133  -0.4436836  -0.2795633
  -0.5127069  -0.2132576   0.2672642  -0.6327459   0.3542149  -0.2202258
  -1.0496638  -0.6872823  -0.4801486  -0.1964070  -0.2562863  -0.0453913
  -0.1882719  -0.6746144  -0.8009933   1.3752736  -1.8017442   1.1941721
  -0.0040588  -0.0791490  -0.1622463  -0.3503599  -0.5413379   0.3881884
  -0.7721170  -0.4988391   1.2240033  -0.1666636   0.0769213  -0.3914562
  -1.4007843  -0.5290722  -0.7930807  -1.7938049  -0.0356553   0.8712875
   0.1829666  -0.1850800  -0.2273152  -0.7544158   2.5818639   1.2473987
   0.2608734   0.4862066   0.1691558   0.1390603  -0.2983130  -0.2534868
   0.5827065   0.7037627   0.1465821  -1.1444815   0.3186025   0.6967923
  -0.0858548   0.2451363  -0.0804327  -0.1787726  -0.2019748   0.6338974
  -0.3509131   0.1913193  -0.3887661  -0.0252565   0.1543383  -0.0310109
  -1.1606306  -1.1387553  -0.5462854   0.3944450  -0.1220583   0.1816795
   0.0766754  -0.0136869  -0.2535111  -0.4625454  -0.7866830  -0.2695555
  -0.4231411  -0.0895540  -0.9439802   0.0956227   0.2505444  -0.0724824
   0.3816031  -1.4318301   0.5589251   0.4408164  -0.1044306   0.1295729
  -0.2257715   0.0618790   0.1994702  -0.6719662  -0.0478857  -0.8228952
  -1.4512731   1.4000039  -0.6162892  -0.2568787  -0.1179583   0.0129510
   0.6130353   0.9021671  -0.4581500   0.1249259   0.3383354   0.6296531
   0.0586491   0.1971769   0.0615060  -0.1275975  -1.0992750   0.4533059
   1.1010544   0.8496775   0.4163060   0.4602983   0.3736451   0.2406853
   0.0423800  -0.5476648  -1.4908247   1.4006637   0.3728714  -0.1901182
   0.3149117  -0.0044266   0.2586921  -0.6403372   0.2291544   0.6951456
   0.1439053   0.4285400  -0.5848947  -0.1885269   0.0102220   0.2055266
   1.0585542   0.1842518  -0.3734058  -0.8553369  -0.5887184  -0.7793129
  -0.1048375   0.0177865  -0.2210869  -0.5815550  -0.9149504  -0.1664565
  -0.4252684  -0.1079758  -0.6074865  -0.1285673   0.1448599   0.0649794
   0.3111778   0.0069962  -1.0785587  -0.4701158   0.3988245   0.5179131
   0.0626690   0.3190154   0.0252034   0.5079467   0.1609936   1.0732890
   1.1069769   0.3152282  -0.5134642   0.0441554   0.1300254  -0.0539555
  -0.4543002  -0.4514426   0.5288744  -0.6127109   0.3853044  -1.2377910
   0.1326356   0.2653290   0.2198419   0.0777670   0.6026283  -0.2752025
   0.5331681   0.5179113   0.1507967   0.1059502   0.1107877   0.0738006
   0.7157871  -1.9184864   0.1848060  -0.2302684   1.0570395   0.5321920
  -0.0796161   0.1347570   0.1531081  -0.4935038  -0.1013246   0.4367775
  -0.4748192   0.6215272  -0.5628031  -0.0617422   0.0938675  -0.0983630
  -0.7953729  -0.5706012   1.2732909   0.2000372   0.6245796  -0.5479890
  -0.0718078   0.0409914   0.1492934   1.3199826   0.1192828   1.0043358
   0.2159156  -0.3524296   0.2686998  -0.2243448  -0.1072520   0.0497601
  -0.8827665   1.9047198  -0.7382677   0.5556892  -0.6357299   0.1625209
  -0.1877319  -0.0193716  -0.2066045  -1.2282252  -0.5931236   1.2534598
   0.6403257   0.2675280   0.4195195   0.2393500  -0.0935365   0.1117619
   0.5230455  -0.3573663   0.8970131   0.3492008   0.1504010   0.3996078
  -0.1978407   0.0676767   0.2748706   0.1277285   1.0166828   0.6221243
   0.7978181   0.5116172  -0.0536127  -0.1742496   0.0895678   0.5217218
  -0.6575969   0.3275474   0.6375947   0.1778382   1.3310049   0.2185904
   0.2865361   0.1168493   0.0479693   0.6444574  -0.3000480  -1.1291497
  -0.2575523   1.3890670   0.2168872  -0.1802251   0.0677304   0.0371543
   0.1122158  -0.6329167   0.1675043  -0.4974580  -0.6346424   0.2921307
   0.0123348   0.0076449  -0.0804371  -0.5864822  -0.0098681   0.4988507
  -1.3836791   0.1783007  -0.1872001  -0.2067757  -0.1849779  -0.1750856
  -0.4632050  -0.3188130   0.8285849   0.5721374   0.1309033   0.8012402
   0.2163413  -0.0824986  -0.1333735   0.2969244   0.2141041   0.0851084
   0.9189802   0.4322568   0.9117749  -0.0651571   0.0624106   0.3823923
  -0.8904175  -0.7224904  -0.7873894  -0.4975927  -1.5429603   1.0365662
  -0.0105083   0.2756253  -0.1614635  -1.2853417  -0.2516648  -0.7020548
   0.4779305  -0.3027927   0.4058598  -0.1107810   0.0771491   0.2262630
   0.7383344   0.3031468  -0.5105057  -0.7990941  -0.4522928   0.0430429
   0.3253060  -0.3227482  -0.2417010  -0.1291043  -0.3270760   0.1524890
  -0.7066603  -1.8180293   0.3643856  -0.2962447  -0.1181805  -0.0522640
   0.7903611   0.6430549  -0.5105783   0.4866973   0.5156267  -0.9325923
   0.0317781  -0.1119897   0.0485251  -2.0317215  -0.1858363  -0.8463455
  -0.0431087   0.5198112  -1.1051450   0.0022826  -0.5509015  -0.3792424
  -0.7955593   1.0034736  -0.4349249   0.5069849  -1.2952793  -0.3977198
   0.2122076   0.3243400  -0.1180965   0.3137159   0.4218387   0.2603839
  -0.4893766   0.4723606  -0.4489108   0.0498287  -0.2428246   0.0124733
   0.0781688   0.3419501  -0.1468443  -0.2966054   1.0408163   0.0259322
   0.2687212  -0.2896650  -0.3326832  -0.3689866   0.5512149   0.9055481
  -0.0490741   0.9324833   0.9485950   0.0089484  -0.1054525  -0.1008297
  -1.0729271   0.1254164   0.8397503  -0.1016970  -0.3108559  -0.6837993
   0.0198287  -0.1807166   0.0649551   0.1861343   1.4422032   0.2254854
  -1.3725274  -0.8399897   0.0339002  -0.1205186  -0.2154713  -0.1578620
   0.2450941   0.8228300  -0.2891792   0.9299365   0.9826738   0.2010104
  -0.0306051   0.0264649   0.0420678   0.2585389   0.1424809   0.1950144
  -0.6281151   0.7762141  -0.3690477  -0.3634702  -0.2454683  -0.4006692
   0.0821707  -1.8565420   0.9093395   1.2806221  -0.2564638  -0.1062896
   0.1635647  -0.1133997   0.1341887   0.2662472  -0.1446099  -0.2179821
  -2.3375183   2.3796172   0.5713778   0.0661691   0.0552716   0.2743764
   0.1077180   0.4441433  -0.2080492  -0.3129910   2.4492689   0.5288069
  -0.2463097  -0.2353471   0.2287476   0.5603927   0.6123316   0.5184030
   1.1355365   0.5054974  -1.5040858  -0.1660079   0.2865983  -0.2794239
   0.4828427  -0.0497696  -0.4510500   0.8106828  -0.3311702  -1.1404890
  -0.0456592  -0.0149542   0.2550178  -0.5690382  -0.1895738  -0.7681699
   1.4678827   0.7864440   0.7547394   0.0029646   0.1243866  -0.1987133
   0.2537193  -0.8202375  -0.5801366  -0.0179979   0.1616797  -0.7618006
   0.1108783   0.1543220   0.0065286  -0.7764439   0.9968033   1.2176243
   0.0410188  -0.2554528  -0.4812546  -0.3029638   0.2413624   0.0182308
   0.4962103   0.5263808   0.4619210   1.2246326  -1.3215052   0.3594562
   0.1791291   0.0911918   0.0612351   0.4168972  -1.0500321   1.1767795
  -2.2187003   0.3124952   0.6063644   0.0525143   0.2246858  -0.1714091
  -0.6135100  -0.7078402  -1.6328956   1.7935058  -0.3034297   0.1741428
   0.2365254  -0.0541253  -0.0733773   1.2474255  -1.4107786   0.0552072
   1.8673507   1.1916339  -0.8355866  -0.0300953   0.0477008  -0.1799166
  -0.2097166  -0.3826621   0.0135432  -0.6459214   0.2441165  -0.9327459
   0.2101165  -0.0309145   0.2053885  -0.0490270   0.3591613   0.3995964
   1.0466680   0.4300620   1.2971844   0.0603882  -0.0964928  -0.0144799
  -0.2763819  -0.0124333   0.0391603  -0.0818645  -0.7809324  -0.2980200
   0.2650594   0.0876519  -0.2418137  -0.7960174  -1.0837290  -0.1965936
   0.4149989   0.7529167   0.5147875  -0.2085465  -0.0547599   0.1252492
  -0.0364339  -0.5043542   0.2021061  -0.0069746   0.6973243  -0.2741645
   0.1266949   0.0505825  -0.2101002  -0.7017852  -0.8042646   0.2987095
   0.1970844   1.0339381  -0.1328552   0.0105011  -0.1856623  -0.2031444
   0.2880917  -0.2015202  -0.3841499  -0.5729280  -0.2095840   1.0001911
  -0.3060154   0.0653614  -0.0454078  -0.5620595   0.0028549  -0.2406723
  -0.2415135  -0.7571312   0.6993412   0.0325959   0.4990363  -0.4147695
  -0.5501884  -0.1127597   0.9993705   0.5982340   1.0782973   0.0815939
  -0.1445012   0.1445071   0.0925260  -0.4046176   0.1824842   0.3179362
   0.3513940  -0.7496997   0.2668965  -0.1170799  -0.1742430  -0.0359061
   0.6990588   0.0184824   0.4824220  -0.7410259   0.3682810  -0.0715970
   0.0663762   0.1812517   0.1037027  -0.1056395  -1.1568499  -1.3547468
  -1.5176130   0.0062084   0.8414075  -0.3777093   0.2972448   0.0631837
   0.3759720   0.2314712   1.0742782   0.1237626  -0.4578741   0.3964968
   0.2319751  -0.2852714  -0.0149469   1.0486094   1.2677466   0.2307001
   0.5606643  -0.8540447  -1.2078490   0.1277075  -0.0678979   0.1675828
  -0.7291982  -0.3126528  -0.0708193  -0.5266020  -0.9083910   0.1158451
  -0.2309283   0.1386249  -0.1678549   0.8113430  -0.9960492  -0.4766702
   0.5798359   0.6686141  -0.6528167  -0.0745495  -0.0673039   0.0985015
  -0.4327994   0.1700326   0.4497685   1.2350571  -0.6559723   0.4563612
  -0.3377095  -0.0220078  -0.4391838   0.7958416   0.2400333  -0.1012631
  -0.1256918   1.0389277   0.8605611  -0.0477098  -0.0100427   0.0117274
   0.1156678  -1.1099335  -0.3585009  -0.9964645  -0.3913692  -0.0393532
   0.0217023   0.0812796   0.3009819  -1.7183300  -0.7205489   1.7698335
   1.0414375  -0.0835639  -2.2697541  -0.0468822   0.0816755   0.2711656
  -0.8403594   0.4413745  -0.5149483   0.3916335  -1.7397637   0.0435312
  -0.0066599   0.2230343  -0.0568563  -0.2628784  -0.0202289   1.5713448
  -0.6031149  -0.0470614   0.5478071   0.0501336  -0.1697353  -0.1828082
  -0.1797665   0.2587397   1.1560721   0.3614696  -0.4477900   0.0222507
   0.1436771  -0.0902051  -0.1660128   0.2478652  -0.2387309  -0.5597087
  -0.5150217   0.3390737   0.7376621  -0.0855418  -0.0803590  -0.2761811
   1.2005206  -1.0126520   0.0872153  -0.2783052   0.6474935   0.2921804
  -0.3344229   0.2381073   0.0940112  -0.4847620   0.1835002   0.7655721
  -1.2745939   1.1465605   0.1112109   0.0277424   0.0526993   0.1992622
  -0.2883543   0.0378867  -1.2343624  -0.0216558  -1.1985835  -0.8286832
   0.0254823   0.1582374  -0.0961771   0.7867320  -0.3357284   0.0919550
   1.4733994   1.3503778   1.2268689  -0.1646046   0.0310161  -0.2584029
  -0.7663795   1.0270698   0.7050375   0.2635963  -0.8218491   0.1793513
  -0.1852950  -0.2060437   0.0529762   0.6770066  -0.2892828   0.0049068
  -1.0539241   0.5563610  -0.2314779   0.2050181  -0.1216205  -0.2272784
   0.1242848   1.1291571  -0.3308267  -0.4981427  -0.2877999   0.2754056
  -0.2615450   0.0477278  -0.3961268  -0.3678160   0.7148737  -0.3190238
   0.9299095   0.6131192   0.5208811  -0.1040717   0.4615670  -0.0760542
  -0.4941765   0.3859791  -0.2094027   0.4539729  -0.5599795   1.3265590
   0.1053431   0.0778925   0.2230916   0.2470956   0.2615260  -0.0509631
   0.0556721  -0.4539081   0.6780029  -0.0702617  -0.2295035   0.1127147
  -0.3767064  -1.0539016  -0.2097991   0.2342353   0.1992865   0.0982504
  -0.2633625  -0.1472527   0.0027682  -0.4851762   0.7306258   0.5080080
   1.0658678  -0.6940832   1.5758595   0.1024329  -0.3463025   0.0472967
  -0.4817561   0.0894236   0.6134274   0.2290142   0.1647402  -0.2234662
  -0.1017659  -0.0274935  -0.2565496  -0.5386173  -0.3867790   0.1177335
   2.0952325  -1.5613939  -1.2972037  -0.0078880  -0.1271980   0.2198544
  -0.2434405   0.5993647   0.1576708  -0.3915948  -0.8300395   0.5469813
  -0.0692278   0.1510726  -0.2075530   0.3155116  -0.3855445  -1.4151480
  -0.4255111  -0.4269341   0.5809897   0.0048267  -0.4218005   0.1043563
  -0.8818806   0.8078726  -0.3978731   0.4438430   1.0182253   0.0458636
   0.0318006   0.0453193   0.1582038   0.8911083  -0.3692793   0.5184193
   0.8490876  -0.3720944   0.9915531  -0.0555952  -0.0641083   0.1384049
   0.1763582  -1.3735900   1.1221271  -0.3132047  -1.2897729   0.4750737
   0.2167222  -0.3166671  -0.0609121   0.7362430   0.5249642  -0.1321727
  -0.2605935  -0.8666913  -1.4018953  -0.3049746  -0.0718204  -0.0105294
   0.2084471   0.0952163  -0.2293593  -0.2931550  -0.4872448   0.2772206
   0.0020536  -0.0672452   0.2018903  -0.2201485   0.2414714   0.2416718
  -0.7157696  -0.8804870   0.2779940   0.2890328  -0.0861507   0.0152722
   0.6195636  -0.0353887   0.0749218   0.4296923   0.2548651  -0.6701051
   0.1194552  -0.1591695  -0.2926213  -0.4566185   0.2732860   1.2972571
   0.8735675  -0.2580428  -1.4739546   0.0674669  -0.0432962   0.0788860
  -0.6246685   0.7606531   0.1700282   0.2921206  -0.0990961  -0.6984203
   0.4326702  -0.2112128  -0.2033071   0.2179373  -0.1488499  -0.4874828
   0.5435425  -0.7920296  -0.1135948   0.1717840  -0.1809882   0.3685649
   0.3053879   0.2603383  -1.0949127   0.1253648   0.5871928   0.2616752
  -0.1208828   0.0487149  -0.0983169  -0.6068492  -0.2953357   0.3707271
  -1.1030988   0.6250159  -1.0308681   0.2484970   0.0426273   0.0686217
   0.4863392  -0.7369833   0.4394710  -0.0189209   0.3010176   0.2415724
  -0.2966913  -0.0191130   0.2169742   0.3501781   0.9107910  -0.3201057
  -0.9137240   0.5433564   1.0491261  -0.3382089   0.0359237  -0.1331742
   0.4360705   0.3435874  -0.2698088   0.7547635   0.0810954   0.4751641
   0.0930218   0.5474169  -0.0618965  -0.2957952   0.0772376  -0.0247939
  -1.8038788   0.9350234   0.5869138  -0.1175361   0.0130765  -0.2375659
  -0.6440250  -0.9188994   0.1353548   0.3520546  -0.3480091  -0.4270123
  -0.2094114   0.0690145   0.1649533  -1.2232848  -0.7254987   0.0238190
  -0.3639999   0.8837767  -0.2932318  -0.2061421   0.0407112  -0.2321699
  -0.3866866  -0.3541423   0.9544383   1.2935316  -0.8508764  -0.9732758
  -0.2984931  -0.2568923   0.0772751  -0.5397647   0.6635752   0.7941273
   0.1458513   0.5545965   0.4616582  -0.1318055  -0.3021449   0.1509912
   1.3165552   0.3265804   1.4884429  -0.2517639  -0.0388229  -0.1061251
  -0.0043496  -0.2325427  -0.0928148   0.3843548   0.8776787   1.2818489
   0.4456630  -0.5044500   0.4033088  -0.3380324   0.0043926   0.2945150
   0.1282689   0.3550908  -0.1322182   0.0953408  -0.6615094  -0.7292753
  -0.0263649   0.1541638   0.2410332   1.6286185   1.6084373   0.1526915
   0.7460524   0.9010402  -0.1271310  -0.1555616  -0.0223836   0.1145003
  -0.8922956  -1.1207400   0.2015413   0.1060371  -0.2831040   0.9277823
  -0.1214207  -0.2974287   0.0402444   0.2787518   0.4237473   0.4750989
   0.3050133  -0.0087732   0.6615628   0.1121106  -0.3573708  -0.3766415
  -0.5193517  -0.1688903  -0.8467921  -0.2142561   0.0181500  -0.1937759
   0.1746727   0.0381411  -0.0326144   0.6608234   0.0733448   0.1782668
   0.6869993  -0.3265841   0.3162342  -0.2225020   0.2991983   0.0722184
  -0.2239096  -1.4282966  -0.3751331   0.3057078  -0.1878275  -0.0607166
  -0.3009059  -0.3163749  -0.2564666  -0.1532539  -0.1373860  -0.3933956
   0.6778786  -1.1208306  -1.9900390  -0.5058414   0.2852387   0.3823941
  -0.6852327  -0.7601459  -0.2650747  -1.4285837  -1.4455826   0.4512085
   0.0358843   0.0106687  -0.2633903   0.1314140  -1.3108046  -0.4593881
   0.4459465  -0.8739801   0.4617625  -0.1419837  -0.1706930   0.1649768
  -0.1358420  -0.0486731   1.2635815   0.1021809  -0.1365990  -0.1463277
   0.2240181  -0.1494305   0.0291700  -0.6678038   0.5571103   0.2672379
  -0.7668762  -0.8004110  -0.7701633  -0.5471168   0.1234089  -0.2518175
   0.4542997  -0.3933715   1.0995166  -0.8260983  -1.1256664  -0.4469678
  -0.2458538  -0.1836684   0.1904122   0.1416230  -1.8776108  -0.8188051
  -0.8178618  -0.2672881  -0.0649483  -0.0520476   0.1853326   0.1931207
  -0.2913568  -1.7776427  -0.8542891   0.4960506   1.0327161   0.5426050
  -0.0873280   0.0916835   0.1056775  -0.9765898   0.5464645   0.2797921
  -0.0307904   1.2358158  -1.1849739   0.0072155  -0.3452497  -0.1428849
  -1.5775376   0.2291883  -1.1691953  -1.1065332   0.2566774  -0.7862484
  -0.0446692   0.0769305  -0.0391807   0.1040567   0.5962734  -0.1648503
   0.9887815  -0.4714294   0.1023467   0.0431818   0.0710370  -0.1651950
   0.7210208   0.5188385  -0.0482675  -1.0244125  -0.1752972   0.2003354
   0.2205281   0.0339703   0.1783565  -1.1176485  -0.4384408   0.1459574
  -1.1669937  -0.8746449   1.3033790  -0.3101597   0.0013463   0.0575699
   0.0627641   0.4254268   0.7352828   0.6476956  -0.8693016   1.2521334
   0.2145501  -0.1547940  -0.1809442   0.0811582   0.1434786  -1.0184973
  -0.6357420   0.8068661  -0.5623803  -0.2541518   0.0931870  -0.2103091
   0.6133773  -0.3631608   1.1208863   1.2401493   1.1392616  -0.9293617
   0.2780423   0.3438221  -0.0192172  -0.6037669   0.8657264   0.5690238
  -1.4895231   0.2731820   0.7820468  -0.1483072   0.0194560   0.0954567
  -0.2422201   0.7999809   0.3513473  -0.4798679  -0.3105621   0.1841344
  -0.0228551  -0.0517740  -0.0083947  -0.1440617  -0.4826872   0.6801577
   0.3145216   1.6208531   0.7508818  -0.3103659  -0.2340648  -0.2056247
  -0.4497092   0.6718116   0.0461996   0.0921564  -0.5883174  -0.9729723
  -0.1731853  -0.1535325  -0.0789783  -0.7834904  -0.3179609   0.8072374
   0.6525326   0.6457115   0.3984296  -0.2199777  -0.2428512   0.1588742
   0.3268577   0.0458578   0.5250090  -0.8692657   0.8982480  -0.2459453
   0.2934289   0.1539430  -0.0670252  -0.0306080  -0.3733533   0.9157277
  -0.4997723  -0.1967539  -0.8074750  -0.2764201  -0.0751017   0.1685454
   0.1020727   0.3609919  -0.5938365  -0.0175513  -0.9100648   1.3677270
   0.1045203   0.0986443  -0.1332618   0.1861824   1.4019044  -0.8177979
   0.5077333   0.4170691  -0.5906488   0.1050440   0.1646407  -0.4169865
   0.1303070   0.0293025   0.5159732  -0.9533454  -1.0356202  -1.3200414
   0.0791777  -0.2626830  -0.0192372  -0.0786838  -0.6484065   0.0671099
   0.0521890  -0.7898977  -0.0451103   0.2711411  -0.3127435   0.0490086
  -0.8041240   1.6152858   0.9677947  -0.4466867   2.1926487   0.3098937
  -0.2966654   0.0844539   0.3345485   0.2939321  -0.7714090  -0.3095600
  -0.2211181   1.8302349   0.3007769   0.0824179  -0.0202607  -0.0888738
  -0.3795220   1.1205326   0.7697188   0.9468768   1.7346777   0.0375952
  -0.0922770   0.3253566  -0.0223262  -0.7907436  -0.2262923   0.2898291
   0.8220097  -1.9568388  -1.6291543  -0.0845226  -0.0944456   0.0398260
   1.5371753   0.5303474   1.1080440   0.3784087   1.2074598   0.9564932
   0.1038408  -0.1020303  -0.0855665  -0.5691308  -0.0547072  -0.5350592
  -0.7714968   0.4987939  -1.4135501  -0.1895641   0.3116982  -0.0116846
  -0.9126081  -0.5318276  -0.6174106  -0.2528474   0.2798552  -0.0328496
   0.1249052   0.1724714   0.0750637   0.5748448   1.5763421  -0.6149541
   0.8214930   1.4602646  -0.7344436  -0.1177797  -0.1374725  -0.2751871
   0.4332768   0.1759339  -0.1843695  -0.4760395  -0.6425894  -0.3323146
  -0.3227291  -0.3390862   0.3284370  -1.1364141   0.2604558  -0.2877705
   0.8395144  -0.6941841   0.0354780  -0.0442912  -0.0293491  -0.3140480
   0.5138187   0.5057243   0.8472029   0.4478211  -0.4791966  -0.6723646
  -0.0567420   0.1209308   0.1295061  -0.4136113  -0.9714485  -0.2366863
  -1.1030742   0.6845463   0.2870626   0.0306808   0.0983256  -0.0928703
   0.3517569   2.3903159  -0.3845643  -1.2130818   0.0497364   0.1981177
   0.3071328   0.2334995   0.0762660  -0.2348727  -0.2396463  -0.1661764
  -0.4950387  -1.1445629  -1.2153945  -0.4031266  -0.0099034  -0.0409414
   1.1095227   0.1207921   1.0844778   0.2774899  -1.3267470   1.6724594
   0.1851909   0.0840117   0.0524343   0.3969159   0.3381100   1.6014021
   0.7265279  -0.3854223  -0.5547705   0.0034786  -0.2770754   0.0057161
   0.4243125   0.2154208   0.7623917  -1.9206270  -0.7244538  -0.9995819
   0.0876874  -0.0187559   0.2153704   0.6423069   1.0820929  -0.4263485
  -0.1121764  -1.5274914  -0.7882183   0.1478541  -0.2801816   0.1103781
   0.1364566  -1.3009426  -0.0881110  -0.5757276  -0.4525368   0.3208472
  -0.2403197  -0.0090966  -0.2117251  -0.5004678   1.5327230  -0.5242883
  -0.6688774   0.3520977   0.0791434  -0.0682390   0.2901199  -0.0312419
  -0.3650341   0.2821517   0.6280943  -0.9946765   1.1751846  -0.2980104
   0.0025359  -0.0133092   0.0664803  -0.2652368  -0.5233226  -0.1035254
  -0.5997019  -0.9116713   0.3034156   0.1174735   0.1327805  -0.0568198
   0.3119988  -0.3464271  -0.1999504  -1.7499397  -2.3753681  -0.5796733
  -0.0261572   0.0026793  -0.0323629   0.0804039  -0.4489648  -0.0052850
  -0.3802968   1.5165947   0.7916914  -0.0171367   0.0252261   0.0190321
  -1.2227360  -0.4969219   0.2210214   0.9666121   1.2274704  -1.4671696
   0.3801967  -0.3885363   0.1562733  -0.7478704   0.2598527  -0.5347484
  -0.0359975   0.0759540  -0.6882543  -0.2000519  -0.1465908  -0.0347195
   0.8254303   0.2452141   1.4498266   1.1474295  -0.6440113  -0.2788207
   0.1520023   0.2002458  -0.0970030  -0.1623032   0.0242179   1.1810515
  -0.9581520   0.6440063   0.5180185   0.1158243   0.1729165  -0.2515087
  -0.2322332   0.3423496   0.0833872  -1.5005811  -0.0995636   0.1597536
  -0.2163024   0.0852470   0.0168584   0.5213810   0.3763474  -1.7587899
   0.7573622  -0.6542560   0.5920395  -0.1099974   0.3210953   0.1672630
  -0.7384979  -0.2678438   0.1456118   0.4448032  -0.3938498  -0.9906276
   0.0858779  -0.0494512  -0.5355599  -0.1954842  -0.3796669  -0.7425687
   1.0466878   0.7940647   0.5961267   0.2238613  -0.0414721   0.1410639
  -0.8238736  -0.3256211   0.5238478  -0.4046050   0.4401564  -0.2270024
  -0.0410999   0.0668703   0.0187381  -0.1879543  -0.2345636  -0.3309807
   0.4485305   0.5278342  -0.0253340   0.0446815   0.0979382   0.2907487
  -0.4076685  -0.8180716  -0.2640919  -0.9438968   1.3249532   1.5163402
  -0.3121972  -0.3289002  -0.2334598   0.0295099  -1.4619129  -0.6280713
   0.5489475   0.5135963  -0.6239365  -0.0692556  -0.0233802  -0.2049278
  -0.7970272   0.2430876  -0.1110757   0.2512346  -1.4799467   0.0147423
   0.2740958  -0.0137197   0.1390325   0.0807502  -0.7506071  -0.1853679
  -0.0035390   0.0972482  -0.1972094   0.2487725  -0.1295318  -0.2269532
   1.5483829  -0.4200809   0.1541968  -0.7934823   1.3169219  -0.3437813
   0.2513219   0.1193712  -0.1953679   0.6552059  -0.1455166  -0.1748504
  -0.4144042  -0.1675503  -0.5574944  -0.1162741  -0.0881991   0.1588091
  -0.6513749   0.6681434   0.4468141   1.9128867  -0.2028841  -0.9916330
   0.1345057   0.0617785  -0.1565377   0.6408491   0.0908749  -1.1370815
   0.7843119  -0.6486831  -0.5949501   0.2221473  -0.0576119   0.2128957
  -0.1152209  -1.0438409   0.8583715  -1.3204664   0.9177813  -0.2820261
   0.0398130  -0.2597776   0.0223716   1.0180552   0.4188935  -1.1896354
  -1.3489968  -0.6535659   0.3499754  -0.1521431   0.1837170  -0.1660771
  -0.5602198  -1.1708795   0.0260112   0.5821486   0.0872149   0.7021625
   0.0836995   0.2804660  -0.3268369  -0.2800685   0.4506754  -0.1069311
   0.8304793   0.4606348  -0.1122612  -0.3962199  -0.1338841  -0.1030659
  -0.1767746  -0.1487764   0.3074711   0.5088198   0.5919992  -1.1548107
   0.1960926  -0.0077514   0.1320853  -0.2017774   0.0388686  -0.0959518
  -0.5808831   1.0873609   0.6746265  -0.2868582  -0.0563497  -0.0252737
  -1.6178672  -0.3970625  -0.4182388   0.3040072   1.3309611   0.0195858
   0.1690541   0.1043312  -0.0329627   1.1605427  -0.0494558   1.1645589
  -0.6354624   0.4427813   0.1204685  -0.4859436  -0.2003132  -0.1073061
  -1.3043785  -0.3948099   0.8140456  -1.4916358  -0.0492517  -0.0998587
   0.1541685   0.0129054   0.0861491  -0.9545678  -1.2950410  -0.9367970
  -1.6763117   0.1610542   0.2820027  -0.1702263  -0.0026566   0.0735976
  -0.2817371  -0.0463032  -0.1421539  -1.9722891   1.6402461  -1.6449582
  -0.0116816  -0.0686028  -0.0920299  -0.4244992  -1.1637025   0.7350696
   0.1697428  -0.3772667   0.5051794  -0.4181911  -0.2805233  -0.0770173
   0.3366761   0.2788835  -0.1729094   0.1306085  -0.2653347  -0.7474576
   0.1725274  -0.2026184   0.1691018   0.7167855   1.8367685   0.6904072
  -1.4521949  -0.5145025   1.3683529  -0.5076865   0.0640604   0.1752285
  -1.7212342   0.2980789  -0.0927517  -1.4294127  -0.2681724   0.6194065
  -0.2673073   0.1887863  -0.1988505  -0.9172060   0.8766107   0.1480552
  -0.5152962   0.8734617   0.0018346  -0.0013589  -0.1839734  -0.1015239
   0.1540537   0.1567475   0.7858832   0.8637651  -0.7039701  -0.1239793
  -0.2128952   0.2383593  -0.0327960   0.6443214   0.7957441  -0.8333339
   0.6926951  -0.1398849   0.0831564   0.1619305   0.4424042  -0.1576999
  -1.4098222  -0.7344687  -0.6475382   0.4257309  -0.4152962  -0.5915124
   0.0401554  -0.1171204  -0.3312673   0.2280039   0.3043671   0.0414648
   0.4818009  -0.2736338  -0.5034046  -0.4482423  -0.0086696  -0.1720882
   0.3540793   0.9025691   1.6228451  -0.2785673   0.1648102  -0.1573946
   0.0540942  -0.1551831  -0.3074776   1.2218397  -1.3551088  -1.0566735
  -0.4576520  -0.3494031   0.0474843  -0.1467864  -0.1630058   0.1417717
   0.3171629  -0.1622853   1.1179823   0.4860947   0.0825501  -0.3943727
   0.0574036  -0.2396562   0.2242757   0.8983518  -0.2218138   0.8246804
  -0.7978975  -1.6029364  -0.8451473  -0.2292186  -0.0396139   0.0401800
  -0.4771327  -0.6590625  -0.8223188   1.0429223   0.7577706   0.2719116
   0.1620683   0.0082270  -0.1653301  -0.4041389   1.1970706  -0.7243300
  -0.9195351  -0.5027980  -1.2232216  -0.5207351   0.1894835   0.0252453
  -0.7200936  -0.3895571  -1.3976114   0.6701649   0.4254566   0.0520734
  -0.2020100  -0.2206878  -0.4526936   0.6315513   0.3657877  -0.0939481
   0.1649294   0.4560750   0.2019122  -0.2189005   0.1176887   0.0706081
  -0.1665688  -0.6936843  -0.8672103   0.5801341   0.5385735   0.3578110
  -0.1293634   0.0190342  -0.0222360  -0.5413410   0.0869987  -0.4665067
  -0.0972449  -0.9026413  -0.6222473  -0.0105452   0.1463047  -0.0973672
   0.2340853  -0.3144937   1.7980423   1.6761791   1.2949801  -0.3232219
   0.2254435  -0.0630019   0.0305382   0.1921978   1.1119130   0.5923947
   0.7957956  -0.6317679  -0.1526452  -0.0341044   0.1341895   0.3132550
  -0.0358219  -1.0156959   0.7362845  -0.9954547  -0.0910933   0.8498598
  -0.0723109  -0.1866764   0.0230701   0.2904842   0.9625755   0.2729304
   0.6583289  -2.1134894  -0.4622966  -0.0027711  -0.0815287  -0.1497888
   0.4304842   0.9436671   0.7100488   1.3700362   1.4622815   0.4686784
  -0.4390385   0.2411510  -0.1029360  -0.0972366   0.1479942   0.2731682
  -0.3225311  -0.6913678   0.1541010   0.3090594   0.0559375   0.2724744
   0.1624717  -0.1468044   0.0043996   0.2191245   0.0945622  -1.0974187
  -0.3648887   0.0233247  -0.3638107   0.1917185  -0.1519928  -1.1821654
   1.0726938   0.2034550  -0.5803268  -0.2303277  -0.2645730   0.4624761
   0.0179336   1.5848807   0.5521766   0.7855092  -1.0944592  -0.7870965
  -0.1382561   0.2615667   0.2083904   0.4888605  -0.8691547  -0.6112922
   0.0860086   0.1797999  -0.0586304   0.1601588  -0.4698443  -0.0143805
   0.2750045   0.2420412   0.1970172   0.4390591  -0.3572852  -0.2053155
  -0.0742566   0.0681360   0.0477476  -0.3049197   0.4081089   0.2108365
   0.7478536   0.1032807   1.1709011  -0.3643769  -0.0445028  -0.0392451
  -0.7892387  -0.4575862  -0.7552310   0.1128798  -0.7987850   1.0215950
   0.1792247  -0.2600098  -0.3743005  -0.3747628  -0.6517463   1.0053039
   0.4156372  -0.1169347  -0.8412007  -0.0957212  -0.1261594  -0.2175626
   0.6604006   0.7877152  -0.2882562  -0.9493863  -0.1764732  -0.3032949
   0.2542784   0.2947271   0.0735102  -0.6933294   1.4791355   0.4633405
   0.3567684  -0.2912715   0.0822348  -0.1412741   0.0183284  -0.0068413
  -0.8455658   0.1957040   1.3701108  -0.5853442   1.0035681  -0.7784102
   0.0095590  -0.0303871   0.0755591   0.2689527   0.0140394  -0.7567530
  -0.0478980   0.0984624  -0.0516231  -0.0781537   0.0289519   0.0021332
  -0.8616861  -0.7413239  -1.4195774   0.4520149  -0.7922356   0.1073761
   0.0521242   0.2433592   0.0444048  -0.4792650  -1.0502722  -0.2732403
   1.0651699  -0.1517291  -1.2362613   0.0412478   0.0404724   0.3020460
  -0.3092528   1.3690508  -0.4622679   0.3656611  -0.3017307   0.0726502
  -0.1571491   0.0211460   0.0188615   0.5801236   0.8441517  -0.0535041
  -0.4180265   0.7296114  -1.2552549  -0.1279978   0.1344249  -0.2581932
   1.7559615  -0.5039796   0.3844376   1.8438747   0.5106578   0.1397624
   0.3114482  -0.0124131   0.1917922  -0.5014928  -0.0879846   0.9952297
   1.2237635   1.0459085   0.4677200   0.2877718  -0.2498778  -0.0141959
  -0.4477188  -1.5567497  -0.1724366  -0.5824595   1.4466455   0.0780725
  -0.0106684  -0.1026073   0.0914637  -0.0750448   1.2173533  -0.3229281
   1.4936583   0.6939783   0.1669223  -0.0517351   0.2108192  -0.0448751
  -0.0469317  -1.1338896   0.4804487  -0.0706044   0.0528677  -0.5064965
   0.0276626   0.1799950   0.1426620   0.1116072   0.5823766   0.6672646
  -0.3166966   0.5984019   0.2262151  -0.0710284  -0.0379449  -0.0617711
  -0.9446614  -1.4091303   0.3926702  -0.7511328   0.2562310  -0.3034845
  -0.2334788   0.0854210   0.3211459   0.6794716   1.3826518  -0.1721010
   1.2581181  -1.1329502  -0.7665462  -0.1821670  -0.2752078   0.1830084
   0.7340433  -1.1560392   0.9211039   0.2540162   0.7795850  -0.3737138
  -0.0739842   0.0010145  -0.2408763   1.0474776   0.5421529  -0.5283592
   1.1774058   0.2489542   1.4213998  -0.0768715   0.3256690  -0.3107387
  -0.2382249  -0.9948731   0.0588989   0.1630659  -0.2073458  -0.6512559
  -0.0438165   0.2199725   0.4372867   1.6434819  -0.7325704  -0.1244955
  -1.9340517   0.0181372  -0.1639213   0.2886604  -0.2912649  -0.2375865
  -0.3567914   0.4825222   0.5753883  -0.1257412  -0.0800541   0.8322830
   0.1613917  -0.0684321   0.2836429  -1.1347987   0.7157443  -0.9903806
   1.0262252   0.1629922  -0.3516224   0.3178552  -0.2747663   0.2396141
  -0.3997428   1.0614537  -1.0341682  -0.1574054   0.0664483   1.0576264
  -0.1639596  -0.1074396   0.0049232  -0.7652243  -0.0925386   0.3289318
   0.7455937   0.8774240  -0.1919502  -0.0472567   0.1102387  -0.0535916
   0.1682128   1.0914646  -1.0725097  -0.5725958   0.4384501  -0.2869780
  -0.2054256  -0.0113180  -0.0356575  -0.6923607  -0.0948966  -0.6168347
  -0.6904744   0.0141385   0.3303592  -0.2974271   0.0281300   0.2459767
  -0.6777201   0.0165580   0.0098277  -0.8156551  -0.3751803   0.2058935
  -0.4416069  -0.1132249   0.3366472  -1.0230177   0.9118129   0.5174810
   0.6750874   0.5279204  -0.9363713  -0.0537633  -0.2029340   0.2384756
   0.8360294  -0.4158106   0.5640000   0.5654082   0.2053522  -0.7176009
  -0.1729775   0.0011062   0.2621490   0.1692369   0.4347831   0.2294009
  -0.3133460   0.5045043  -1.0070136   0.0947336  -0.3439141   0.0281242
   0.2219578   0.4293411   0.3934378  -0.8959036   0.0236515   0.5731231
   0.1376787   0.1732873   0.1179021  -0.6926177  -0.7059200  -0.4891179
  -0.1739295  -1.1708829   0.0355951   0.0403444  -0.0999794  -0.1630266
   1.4127331  -0.7387845   1.0767174  -1.4332832  -0.9088240   0.4693402
  -0.0147822  -0.0466092   0.0293523  -0.2831440  -0.0405332  -1.6954757
   0.3063537  -0.4819059  -0.7747950  -0.2004539   0.2018369  -0.1380604
   0.2328868  -0.2156736  -1.1820767   0.5657461   0.7599680  -0.6121529
  -0.1825062  -0.1445755   0.0274060  -0.5861690   0.2934857  -0.2470054
   0.7429070  -0.2620854  -0.4442650  -0.1032877   0.0209491   0.0593175
  -1.8071976   0.7955433   0.3194423  -0.8039583  -0.2520925  -0.4165308
  -0.0720968  -0.0901257   0.4049342  -0.1925385  -0.9605190   0.9502989
   0.1907863   1.3972897   0.5216804   0.0999848   0.1705668   0.1192623
  -0.8227400   1.0565133  -1.0429294   0.6090744   0.9707084   0.0389710
  -0.1642796   0.2492402  -0.1800688  -0.4612559  -0.6778427  -0.4449546
   0.4193139   0.6761315   0.1934924   0.2194767  -0.1852103   0.0613560
  -0.7623778   0.5849440  -0.6727798   0.4506656  -1.1775067  -0.4457420
  -0.0344208  -0.0627321  -0.0557864   1.2569290  -0.5146167   0.3468184
   1.1603698   1.5906390  -0.4548737  -0.1788764  -0.1812279   0.0974116
   1.1627999  -0.2189212   0.1916005  -0.0536654   0.8991648  -1.1326561
  -0.2837854  -0.1849875  -0.2431326  -1.3179201  -0.4695583  -0.8228120
  -1.9260113   0.6424130  -0.7761237  -0.1554878   0.1926527  -0.1296535
   0.8519987  -0.2881017  -1.3313037  -0.7733875   0.2107911   0.6026867
   0.2329857   0.3156910  -0.3224231  -0.9220344  -0.3973172  -0.1532302
  -2.0078081   0.6514408   0.0624791  -0.0942807  -0.0152475  -0.0660054
   0.8954495   0.5254946   0.0718968  -1.0940457   0.9774488   0.1877902
   0.2818324  -0.5095048  -0.1109293  -1.8606382   0.6479441  -0.1972218
  -0.3858132  -0.0604265   1.1530176  -0.1033876   0.2635396   0.4258275
  -0.1648093   1.0895003   1.3803270   0.8555657   1.0045456   0.0395951
  -0.0418475   0.1881736   0.3261278  -0.3834212  -0.5601489   0.2435142
  -0.7401599   0.3345868  -1.3615639   0.0332702   0.0971269   0.1107781
  -0.9341952   0.0246485  -0.3045000  -0.0313572  -0.3422636   0.2571570
  -0.0467083  -0.2343511   0.0948627   0.4452398  -1.2248789   0.0049427
   0.1755383   0.5880762  -0.1333643   0.3938363   0.2135127   0.4369731
  -0.4775838   0.1496020  -1.5386743   1.5280614   0.0353638  -0.1086656
  -0.2529502   0.0623736  -0.0571979   0.5552105   0.0022551   0.6431126
  -1.1721838  -0.0227572   1.5569695  -0.1829694  -0.1056906  -0.0263542
  -0.1410690  -0.0064302   0.9942219  -0.3192721   0.6699676  -0.1804227
   0.0477454  -0.0874646   0.0095345   0.9219071  -1.1083863  -0.4088858
  -0.9691047  -0.0410969  -0.1502347   0.1876274  -0.1345575   0.0387830
   0.4433021   0.1584647   0.3795294   0.8392621   1.3576921  -1.0823738
   0.0228252  -0.0936522  -0.0714998   0.5758812  -0.3303205  -0.2180372
  -0.6255984   0.8448148   0.1048568   0.2521100   0.1153482  -0.1970693
   1.2318554   0.3796378  -0.2347437   0.9181900   0.8353399   0.6419208
  -0.0000361  -0.0515228  -0.0467592  -0.3871227  -1.3871054  -0.4908087
  -0.6858322   0.2069970  -0.3122435  -0.1332352   0.1890967  -0.1001748
  -0.2074570  -1.5358962   0.6210068  -0.0207737  -0.5016045  -0.0958525
   0.3515205   0.1568414   0.1584101   1.4045943   0.5876963  -0.5615920
  -0.5255132  -0.6516773  -1.2630445   0.2384240   0.0391322   0.1746929
  -0.0544200  -0.3181711   0.6185638  -0.6843963  -0.3141473   0.4135213
   0.1684661  -0.1331459  -0.4448309   1.5528911   0.1578219  -0.0391109
   1.0235046   0.0749250  -0.2030198  -0.0136251   0.1756600  -0.2503392
   0.4137959  -0.4928426  -0.9992414   0.3203945  -1.0396579   1.0449153
   0.0299098  -0.0962949  -0.0513743   1.1566522   0.0932968  -1.4335444
  -0.4755293   0.5056001  -1.8896090  -0.0373611  -0.2981713  -0.0857099
  -0.0395012   1.9019044  -0.0603746   1.5120375  -0.8339410   0.3840898
  -0.1089408   0.0950380   0.1079219  -0.6413305  -0.2080192  -0.5256653
   0.2878591   1.3396887   0.8551585   0.1923153  -0.1377991  -0.2598750
   0.3532842  -0.0001995  -0.8294409   0.6517878  -0.8540444   0.0066264
  -0.1303753   0.2095155  -0.0639654   0.7941256   0.7632136  -0.3538474
  -1.1167904  -0.9609631  -0.1356213  -0.1832328   0.1477244  -0.2961878
   0.1525197   0.7093232   1.8003368  -1.4944108  -0.7423327  -0.0953227
   0.1849466  -0.1542257  -0.2480936  -0.5729433   0.0941267  -0.1956501
   0.2574637  -0.3750660   0.2339211   0.0819736  -0.1650623  -0.1192634
   0.0408983  -0.3386969   0.5983134  -0.5807414  -0.6120530  -0.8302931
   0.0231600   0.0270629   0.1808848  -0.0108800  -0.3015870   0.7142245
   0.3581966  -0.1111822   0.5837856  -0.1528876  -0.0970764  -0.3579175
   1.1322978   0.8573357   1.0141237  -0.2075967  -0.5181542   0.0735647
   0.2171167  -0.0682075   0.0502992   1.9047320   0.6682005   0.4361496
  -0.7617061  -0.1825401  -1.6833200   0.2101470  -0.2770635  -0.0553395
  -0.3322603   1.1106341  -0.0774706  -0.9044501   0.5139534   0.1827112
   0.1264817   0.1363168   0.0952919   1.1621987   0.0544380   0.3933120
  -1.3420405   2.6623022   0.9122816   0.1223153  -0.1668269   0.4105019
   1.2000785   0.3845967   0.8590483  -0.4989850  -0.4041185   0.3002667
   0.0599586   0.0425656   0.0452162  -0.2181593  -1.1973625   0.1926708
   0.8212755   0.6977012  -0.5816184   0.2965964  -0.0116822   0.1524324
  -0.0154120   0.2983716   0.4311083  -0.0857490  -0.8716231  -0.8627577
   0.0582687   0.0727460   0.1713542  -1.6291364   1.1047184  -0.9538944
   0.1086654   0.7859991   1.4360400   0.1550323   0.0856773   0.1297499
  -0.4472021  -0.4637863   0.0200949  -0.5203783   2.6066028  -0.1827844
   0.1232341   0.1890975   0.0457327  -0.5220698   0.0356473   0.1369837
  -0.4412630   1.3408571  -0.6280942   0.0590772  -0.4985641  -0.0767299
   0.3555097  -0.0385350   0.8681302   0.4074377  -0.6894548  -0.8662913
  -0.1724564   0.0107608  -0.1528489  -0.8766537   0.0063649  -0.9789358
  -0.6709515  -0.7955719   1.4359500  -0.0963892   0.0272652   0.1807331
   0.4181644  -0.1822284  -1.2982715  -1.1452190   0.4984917  -1.7788566
  -0.1086459  -0.3325549   0.0360510  -0.6477656  -0.0744297   1.1903192
   0.6998734   0.7836380  -0.6631208  -0.1037328   0.3121119  -0.2505834
   0.0563527  -0.7582074   0.0696638  -0.4315462   0.1488563  -0.7049305
   0.2202009  -0.1475546  -0.0983895   0.1178496   0.1994356  -0.4200752
   0.9478316  -0.4427770  -0.9542115  -0.1036914   0.0668175  -0.0953999
  -0.1870866  -1.0676066   0.1744963   1.8029788  -0.2356223   0.3529897
   0.0988872   0.1662872  -0.1021005  -1.3035923  -1.1056966   0.7244685
   1.6372106  -0.3814982   0.5675512   0.0340798  -0.2729724  -0.0080100
  -1.3180500  -0.5088174   0.1195839  -0.4231548   0.2893654   0.3422956
  -0.1172945  -0.0465015  -0.1424382   0.8459891   0.5907956  -0.3953448
   0.2189453  -0.1437645   0.4839380   0.1094030  -0.0964558  -0.0865981
   1.2055565   1.2909259   1.1734909  -0.6108663  -0.7764001  -0.1996548
  -0.3406499   0.1328734  -0.1002780   0.4304109  -0.4558887  -0.3985891
   0.0193541   0.6840713   0.1856034  -0.0925189  -0.2330581  -0.2547307
   0.3040723  -0.1587998  -0.7274519   0.1865130   1.2548294   0.4862546
  -0.0127068   0.2226629  -0.2557401   0.7505474   0.2839006  -1.7208878
  -0.4751182  -0.5482747  -0.1623594   0.2542892   0.0341581   0.0938739
  -0.5386935  -1.8849024   0.1278585  -0.2128282  -0.5305829   0.7097412
   0.0227064   0.0875105  -0.4141725   0.6977006  -0.5769943  -1.0318862
   1.0776803  -0.6124419   0.8536145  -0.0112414   0.3071177  -0.0007924
  -0.6459208   0.2586953   0.1601839   0.7355060   0.8210799  -0.1825714
  -0.1430255   0.0865848   0.0049932   0.9577913   0.9416575   1.0755743
   0.5481575   0.6889038  -0.4446926   0.3686440  -0.2067502   0.3663673
   0.1524673   0.5933568   0.0648069   0.2672809  -0.0732316  -0.0029536
  -0.0399684  -0.1931940  -0.0456218   0.7605402  -0.3207770   1.0908144
   0.4730968  -0.4163009  -1.0714949  -0.3060866   0.1686049   0.2097069
  -0.2518378   0.7596624   1.2179167  -0.1923650  -0.4048761  -0.8193390
  -0.0360119   0.0552496  -0.2775708  -0.7239206  -1.9292644  -0.6689443
   1.2130469  -0.2035196  -0.2860757  -0.1894113  -0.2521082   0.1518536
   0.3640587   0.7039541   0.7044239  -0.1251628  -0.4322461   0.7402692
  -0.2551285  -0.0213496   0.0134512   0.1998158   0.4726830   0.3698023
   0.7040338  -0.7415531   1.0845421   0.0949512  -0.1884146   0.0733523
  -0.5890449  -0.2335048  -0.9186865  -1.3853564   0.9354695  -0.3332798
  -0.1479824  -0.3476196  -0.2484137   0.2966888   0.0311154  -0.2914086
  -0.2832892   0.3163342  -1.7131418   0.1877163   0.1884336   0.1530332
  -1.7803095   0.2879270   0.1739342   0.0908896   0.9964831   0.4307722
   0.1708798  -0.1320631  -0.0140952   0.3688972  -0.2840796   0.4433108
   1.6819360  -1.2101125   0.6303783  -0.0415181   0.0214657  -0.2849665
  -1.1196866   0.5457593   0.0790989   0.8186459   0.5687532   0.6210858
   0.1768453  -0.1320699  -0.2347168   0.9957938  -1.0714688   1.0576207
   0.9916368   0.2635914   0.4182540   0.0850153  -0.3474773   0.0034709
   0.8311136  -0.2846464  -0.6148871   0.0104998   0.8401016  -0.1253236
   0.2654551   0.1363405  -0.0747695   0.0517517   0.4129668  -1.4807034
   0.2796555   0.6561924  -2.2401684  -0.2908985  -0.1486771  -0.1445353
  -0.1376440  -0.3244755   0.2558963   0.1935121   0.8050638  -0.5150831
  -0.0216102  -0.0311443   0.1777400  -0.5578917  -0.7827300   0.1636705
  -0.2499450  -0.6299824  -0.1169708  -0.0699262   0.2372955  -0.1595813
  -0.8350070   0.1211509   0.1917318  -0.5770278   0.1227783  -0.3006406
   0.1042702  -0.1936824  -0.1282581   0.2632557   0.0371379   0.3258049
  -0.5938905  -1.3611231  -0.0696219   0.0558312   0.2310995   0.2413230
   0.7613567   1.6230303   0.7326295  -0.4044028  -0.4845446   0.9350060
   0.1612527   0.2511102  -0.0719101   1.2809623   0.8077155   0.8121148
  -0.4151605   0.1117753  -1.5627477  -0.0310650  -0.0381460  -0.3406754
  -0.6149957  -0.5800308  -0.5513736  -1.6094612  -0.3543209   0.0923104
   0.0166243   0.1038445   0.3884306  -0.1465845   0.5677914   0.1219972
   0.2314483  -0.0658684  -0.6464328   0.1399852   0.0690268   0.2815746
  -1.4701655   0.3670571   0.2213309  -0.2251302  -0.7397595   0.3160397
  -0.3372320  -0.2431107  -0.1480167  -0.1529455  -1.2814191  -0.1309603
   1.3222461  -0.7666505   0.5502230   0.1016749   0.0531494  -0.0709767
   0.1184322   1.8269768  -1.3217165  -1.2841443   0.6655097   0.8121051
   0.0016192   0.1612778   0.1266460   1.6718969   0.1753604  -0.9864420
  -0.6980230  -0.6972253   0.2918208   0.1402100   0.1705509  -0.0681112
   0.0616009  -0.6275312  -0.6208125   2.3688658  -1.0876329  -0.5431613
  -0.2293526  -0.0170791  -0.3237319  -0.7731669  -0.2861327  -2.5551900
   0.7879966   0.4185985   0.1070736   0.1525843  -0.0616612   0.2162276
   0.7542511  -0.1873086   0.5429750   1.3755708   0.6158467   0.2830659
  -0.4222916  -0.3798098   0.0409205  -0.8597572  -1.1671425   0.3153399
   0.5946733  -0.6525508  -0.3238797   0.2297478   0.0078317  -0.1163049
   0.5211293   1.5776344   0.0968975  -0.5430087  -1.4136480   0.5150039
  -0.0888574  -0.3451010  -0.5597393   0.3195469   0.8754274  -0.5913866
   0.7197271   0.3139597  -0.7014374  -0.1484311   0.0451028   0.1600148
  -0.7268441  -0.3043839   0.3712110   0.7664411   0.6873674  -0.7142903
   0.0728030  -0.5834847   0.0856837  -0.3861831   0.0182213   1.6100102
   0.2237635   0.6338790  -0.7708810  -0.4081705   0.2632235   0.1847666
   0.2629136   0.9549504   0.3372442  -0.0894050  -0.4710349   0.2279596
   0.1250623  -0.2589939   0.0260139   0.1645312  -0.0677136  -0.1755620
   0.7011167  -0.4191872  -0.5021505   0.3170102   0.3341902   0.0362898
   0.0014590  -0.6396054   0.7166814   0.9775696  -0.6591157   0.6155952
  -0.0654739   0.1387495  -0.0637799   0.2504426  -0.0792525   2.0514657
  -0.1097401   0.2136319  -0.3418912   0.2412508   0.2339445  -0.0367690
  -0.8615802  -0.8110317  -0.0355390   0.4728267  -0.7072794  -0.0274823
  -0.0553078   0.1175875   0.1632167   1.2362176  -1.0703862   0.4091117
   0.6167321   1.5446331  -0.4051719  -0.0429701  -0.1646139   0.2105269
  -1.4401791   0.0049130   0.5299492  -0.7456422   0.8841960  -0.3380951
  -0.2114267  -0.2080615  -0.0123542  -0.8002974  -0.0518963   0.6057955
  -0.5378053  -0.3052662   0.2533140  -0.0854160   0.0392040  -0.1806335
   1.2948454   0.1614679   0.4872821  -1.0971032  -0.2237472   0.7215319
   0.0756686  -0.3218626   0.0114202  -0.4323039  -0.4101105  -1.7627521
   0.9523723   0.3953545  -1.3545947  -0.0609570  -0.0288443   0.0185629
  -0.7684484   0.1353531   0.0505237  -0.4924259   0.2498963  -0.4268836
   0.1390722  -0.3367272  -0.0953606  -0.1316764  -0.3285971   0.1465127
   0.2255570  -0.0386829  -0.3183394   0.1061515  -0.1271618  -0.2056454
   1.3646320  -1.3689408   0.6742872   0.8514471  -0.2814974   1.0905157
  -0.0564577  -0.0049799   0.4745330   0.2122701   1.4910500   0.7628208
  -0.1709840  -0.2407816  -0.1576648   0.0191956  -0.1956344   0.1181587
  -0.0364227  -0.3912970  -0.4895765  -1.6543309  -0.5311543   0.7459661
  -0.3889583   0.2374493  -0.5139285  -0.2727604  -0.7274353  -0.6816341
  -0.2958907   0.1187191  -1.0069842  -0.1135343  -0.1213052  -0.2819982
  -0.9897431   1.3206331   0.9829227  -0.5014077   0.9321302   2.0655722
  -0.1125758   0.0481779  -0.3337271   0.4502650  -0.3617953  -0.2358843
  -0.3615745   0.2074639  -0.0200576   0.0489571  -0.2487533   0.1744668
   1.5681015  -0.0607644  -0.8564681  -0.1705704   0.2279825  -0.4711034
  -0.0925262   0.0715523  -0.0393507  -0.5778044  -0.7921356  -1.9543451
  -0.4975631   0.4229484  -0.9916879   0.0116064  -0.1193600   0.0844871
   1.0263576   0.2644293   0.1195288   0.2062612  -1.1500780  -0.3194497
  -0.1961827  -0.0448065   0.0654725  -0.3402633   0.1663775  -0.4407836
   0.4057829   1.0450412  -0.0869395  -0.0078643  -0.1314138  -0.0252707
   0.0593918  -0.7106508   0.0435601  -0.1363705   1.2169836   0.2914528
   0.1120764   0.0612566   0.3080949  -0.6159238  -1.5431936   0.7089158
   1.3455992   0.5006070   1.1991435   0.1351963  -0.1941252  -0.1939229
  -0.3795919   0.0141379   0.2383360  -0.3677738  -0.1022096  -0.3371650
   0.1408985  -0.1678010   0.4718520  -0.7953892   0.9964328  -0.8625848
   0.0973402  -1.5605191  -0.1065726   0.1634209  -0.1114715   0.1363790
   0.0841242  -1.2900685  -0.1658736  -0.8304931  -1.0829322  -1.5269243
  -0.0946643   0.1027155  -0.1427050   0.3831298  -0.8889865   2.1672657
  -0.2135618  -0.4576578  -1.1038726  -0.1123857  -0.0767735   0.0448466
  -0.1847724   0.3438161   0.5807342  -0.3098701  -1.3382503   1.0591602
  -0.0256885   0.0296512  -0.0233547  -0.6734244   0.0448762   0.0775498
  -0.1707327   0.4232328  -1.0529942  -0.1115190   0.0067299  -0.0164041
  -1.0330562  -0.1620353  -1.6077548  -1.6499691  -0.7744890   1.0491282
  -0.1572504  -0.2695229   0.0061003   1.2080018  -1.5158783   0.6462829
  -0.3442753  -0.7990467   0.3904942   0.2243224   0.2647376   0.1619691
   0.1755287  -0.3111726  -0.2363942  -0.7215019  -1.2579398  -1.0732835
  -0.0388030   0.1284708  -0.0307033  -0.1566054   1.5239103   0.9294194
   0.4842113  -0.3868811  -0.3212352   0.1449693  -0.2288604   0.3795291
   1.1029206  -0.7746776  -0.3508198   0.1915524   0.6400067   0.3075240
   0.2609658  -0.1078308  -0.0392193   0.2408103   0.5224664   0.4791539
   0.3424941   0.5922361   0.5091356   0.0245787   0.0858425   0.4272756
  -0.0985032   1.2251811  -0.7326333   0.2004262   0.8663223  -0.4157496
   0.0025463  -0.2590882  -0.1544867  -0.5874793  -1.6300619  -1.3206631
  -0.4902352  -0.5618727   0.6639748   0.0183833  -0.1229407  -0.1870817
  -0.1675273  -0.6408630   0.8079650   1.4247080   1.2310950  -0.5068267
   0.1450876  -0.1543326   0.0350880  -0.1791642  -0.2734853  -0.3477246
  -0.7112190   0.8082977  -0.3770525   0.0709480  -0.0808952  -0.0020998
  -0.5970897   1.8586057  -0.4436861   0.9445445   1.2320394   0.0002111
   0.1654792  -0.3041439   0.1481618   0.1562557  -0.4934486  -0.6791167
  -1.3925816  -0.1718195   0.2615294   0.0593007  -0.4090520   0.2625884
  -0.5406637   0.8647836   0.0710778   0.4001477   1.2483717  -1.0760701
  -0.1841422  -0.0821499   0.2454756   0.3171328  -0.6520006  -0.2792046
   0.2283389  -1.6916348  -1.5331076  -0.0790694   0.3350388   0.2501430
  -0.0860766   0.0128504  -0.3656374  -0.9801615  -0.9269289  -0.4775124
   0.0277911   0.0020290   0.2263030  -0.3514841   0.2858789  -0.9302264
  -0.4846211  -0.4015301   0.1731354  -0.0528174   0.1547246  -0.0224731
  -0.1939265  -0.1894758  -0.7410627  -0.4256143  -0.2383322  -0.5667532
  -0.1717759   0.2792215  -0.1934069   1.3549157   0.2978634   0.2759972
   0.4431142  -0.6431050   0.5260070  -0.2336883   0.1804276   0.3086901
   1.1807387   0.2191461   1.3287750  -0.7699804  -0.5395243   0.2760189
  -0.1529952   0.3661113   0.1301296  -0.3781758   0.8488451   0.5125977
  -0.1461352   1.9077273   0.3401895  -0.0521955  -0.0500881  -0.0789539
   0.5649749  -0.7630715   0.9200509  -2.1062763   0.5559361  -0.6154496
  -0.0839543  -0.1115670  -0.0187224   0.6663174   0.6186074  -1.1037491
  -0.2374958   0.5951911  -0.2110081   0.0256263   0.0172083   0.2611185
   0.4177225  -0.0253062  -1.8756499   0.3975734  -0.3038408   0.0134842
  -0.2834953   0.0586825   0.4046051  -1.2423570  -0.9971796  -0.6612324
  -0.8132248   1.1444036  -0.0774366  -0.3393876   0.0779067  -0.0166926
  -0.2850612   0.2799610   0.3737454   0.0589610  -0.5520482   0.0339840
  -0.2195220  -0.3765664   0.0831300   0.6537854   0.6041167   1.8459019
  -0.3566019   0.4688817  -1.1708358  -0.1827914   0.2808643  -0.1537916
  -0.3509177  -0.3715386  -0.2406144   0.6237457  -0.0461027  -0.7654035
  -0.1760194  -0.1354832  -0.1446673   0.7041833   0.6189621   0.7420295
   0.8018745   0.4872307   0.3103682   0.0168453  -0.0885661  -0.2711059
  -0.4768357  -0.6949175  -1.5197307   0.5824239   0.5853324  -0.1207834
   0.3069722  -0.2787947   0.0159808  -0.0380218  -0.6159115   0.3725699
  -0.7415196  -0.4718803   0.2396257   0.1655008   0.1008685  -0.0768654
   0.9190790  -0.7635632  -0.2092291   0.1599271  -0.2796343  -0.6035317
   0.0818303  -0.3837705   0.1717317   0.5333033  -0.2287925  -0.9042138
  -1.3099461   0.4257914   0.2069014  -0.2586890  -0.0991167   0.0036330
   0.9512884  -0.0933452   0.6857922   0.5880382   1.1707073  -0.8639125
  -0.1926588  -0.2649738   0.0778144  -0.2433396   0.0923671  -0.6791100
  -0.8932509  -0.4241809  -0.1509488   0.3135235  -0.2364884   0.1129889
  -0.9606602  -1.2322452   1.1123900   0.7763281   0.1573651  -0.0051150
  -0.0352498  -0.1433745  -0.1717009   0.1422844   0.0494714   0.7209711
  -0.0061573  -0.7582811  -0.0400105   0.1881640  -0.2548557  -0.1600029
  -0.3295411  -1.5666314   0.5957020  -0.4236522  -0.7026013  -1.6831139
  -0.1216140   0.2054637   0.1331620   0.5176759   1.3286281   1.4998778
   1.0696876  -0.4361337  -0.6490413  -0.2295980   0.0257241  -0.3614186
  -0.5301491  -0.4622330   0.0157046   0.3882691   0.5250664   0.3846311
   0.3748118  -0.4101841  -0.0585745   0.8224543  -0.7458137  -0.2978974
  -0.5730183  -0.1369404  -0.0096627   0.2262186  -0.0238129   0.1445736
   0.6921351  -0.4936768   0.0698176   1.5920827  -0.5157673   1.7775595
  -0.3072452   0.0641137   0.0539958  -0.3698746  -0.1230101  -1.5196621
   0.2030392   0.9870983  -0.1915919   0.0131913   0.1073299  -0.0767950
   0.4632624  -0.1201267  -1.1683505   1.5625655   0.1249193  -0.8670047
   0.2571791  -0.0719986  -0.0535108  -0.0584036  -1.0142223   0.1574022
   0.9836698  -0.9214754  -0.5247837   0.0287427  -0.2878801  -0.1254541
   0.0544266   0.9675341   1.1970111  -0.0945582   0.1608355   1.3678109
  -0.1386802   0.1827293  -0.2586757   0.1048335   0.1040724  -0.3062161
  -0.9299821  -0.4564206   0.3659276   0.1510674   0.1574065  -0.1239991
   1.0499896   1.3256354  -0.4463457   0.0718078   0.1386494   0.0160343
   0.0386306   0.2257686   0.3043807   0.7828398   1.3110667   0.1499419
   0.5721613  -1.1210819  -1.3239577   0.2074590   0.1292051   0.0288470
  -0.4945763  -0.1641789   0.2083979  -1.1260331  -0.5050056  -0.4612889
   0.0816999  -0.1377427   0.2552672  -0.3206110  -0.2088393   0.5813549
  -0.8673837   0.1087280  -0.0608358  -0.1809637   0.0362173   0.2431652
  -0.0347182  -0.8732769   0.9272729  -1.1727888   1.1000428   0.4880526
   0.5018613  -0.0267840   0.0227909   0.0026898  -0.5511151  -1.4420124
   0.8290932   0.4633728   0.7592280  -0.0427846   0.1714618   0.1231143
  -1.4131288  -0.8532186  -0.6959135  -0.0371549   1.4545162   0.5067018
   0.0544203   0.0324685  -0.5732540   0.0790489  -1.3839950   1.0640937
  -0.6468218   0.0757942   0.8262424   0.1281404  -0.0530644  -0.1630014
   1.3163230   0.0932385  -0.1709300  -2.0694777   0.1486290  -0.6236459
  -0.1828036  -0.0775371  -0.0352849  -0.5922305  -0.6930327  -1.0063194
  -1.1181932  -0.6745891  -2.0251435   0.1890448  -0.0388589  -0.0557688
  -0.9671848   0.0928413  -0.2565887   0.0683842  -0.5584802   1.7241436
  -0.0983109  -0.3925784   0.0706015   0.5811623   0.2926477  -0.5424720
   0.2968460   0.4182090   0.7327512  -0.0767680   0.0848496   0.4233921
   0.0831081   0.3177632   0.4820951   1.4163724  -0.1928493  -0.0791703
  -0.0646471   0.2473935  -0.0370191   1.4280217   0.0963877  -0.0109913
  -0.0571053  -0.3980812   1.1060904   0.1362843  -0.2923553  -0.0327993
   0.5580583  -1.0450147  -0.3206327  -0.1497330  -0.1426020  -0.5385832
   0.3859422  -0.0339015   0.1619421   0.3891343  -0.5355523   0.9415095
  -1.5670205  -0.9225573   0.0425635  -0.0918362   0.0450066   0.1073016
   0.4164418  -0.4274771   0.1840751  -1.0950092  -0.2180060   0.1838531
   0.0155540   0.4437112   0.0495639  -0.4529217  -0.9592514   0.6567782
  -0.7267388   0.4267655  -1.3822526  -0.0511246   0.2691261  -0.0856359
  -0.8248680  -1.0975367  -0.2986930  -1.5186560   0.0551312  -0.3872441
  -0.0133939   0.1382363   0.1074113  -0.6952958   0.0509775  -0.3544721
  -0.9246043   0.2647768   0.3386118  -0.2566971   0.2251492  -0.1078066
   0.0873253   0.0288612   0.9689607   0.9170348   0.1257935  -0.6665018
  -0.2576868  -0.0931042  -0.1095487   0.5829424  -1.3760087  -0.6119168
  -0.5802223   0.9723893  -0.7114718  -0.2397220  -0.0052734   0.1282255
   0.2081088   0.9780363   0.0958739   0.8180701  -0.9123346   1.5327298
  -0.3447655   0.3784142  -0.1629103   0.7149277   0.4516433  -0.5290111
  -1.2051008   0.5197816   1.4535438   0.1010503   0.1858461   0.2275640
   0.0407729   1.3139175  -0.1298697  -0.7673001  -0.7907065   1.0377344
   0.0718378  -0.2546587   0.2975076   0.2465361  -0.6115464   0.3509016
  -0.5877319  -0.6325102   0.4028624   0.2866617  -0.0607805  -0.1119040
  -0.5966387  -0.3116897  -0.5116859  -0.4227210  -0.3729081   0.4795595
  -0.2458845  -0.1026292  -0.0595359  -0.2457593  -0.1033587  -0.5608755
   1.5532419   0.4583738  -0.2860493   0.0042494  -0.3438287  -0.2342772
  -0.5808914   0.1354197   0.2582825  -0.8428412  -0.4595013   1.2772675
  -0.1496066  -0.1049164   0.1722051  -1.5568539   1.1414991  -1.7695397
   0.3238264  -0.0521363   1.0359251   0.0264272  -0.0469391   0.1881455
   0.8409781  -0.0786608   0.2119726   0.3637836   0.2240504   0.5433220
   0.0035577  -0.0756646  -0.1716609  -0.3203848   1.0486448   1.0626657
  -0.7574652  -0.6134204   0.5271023  -0.2264969  -0.5281682   0.1803855
   0.8855218   0.7371508   0.8741279  -0.1035149   0.4147438  -0.7120244
  -0.1414438  -0.0651352  -0.0237723   0.4724983   0.0190216   0.7359683
  -0.0048925  -1.2122960   0.6036009   0.0212445  -0.2305753  -0.1162884
   0.6481502   0.5472335   0.0962082   1.8450679  -0.5358983   0.6804674
   0.5025244   0.2314559  -0.0179263  -1.4525073  -0.8280671   0.1174175
   2.0255489  -0.5504441  -0.5442889   0.2298706   0.1996988   0.0159157
   0.3596673   1.1657292  -0.1839987   0.5420662   1.2254107   0.3019343
   0.2742289  -0.5484544   0.2017048  -0.7642697  -0.4404023  -1.5266325
  -1.5192392   1.2300681  -0.7502298  -0.1322589  -0.5593417  -0.3096622
   0.7282483   0.1353937   0.5201543  -0.3432326  -0.2603025   0.4156490
   0.2445795   0.2571745   0.0153832  -0.0643972  -0.3737997   1.3209020
   0.2336405   0.1017487   0.2036493  -0.1370625   0.2501560  -0.0273901
   1.4707867  -1.0760963   0.3157567  -0.9197819  -0.4006863  -0.4250615
   0.0533495  -0.0804138  -0.2525124   0.5474470   0.8051884  -0.4318368
  -1.6193699  -0.7730473   0.1105875   0.0950402  -0.2506898  -0.0141924
  -0.6239343   1.1791321  -0.8240470  -1.1790327   1.6743393  -0.1687553
   0.2122701  -0.1384798   0.0783201  -0.3873821   1.7021549  -0.2188460
   0.8794971   0.5654363   0.6330209  -0.1097589   0.0661012  -0.2046214
   0.3431177  -0.4643310  -1.4771047  -0.2700715   0.7102424   0.1765772
  -0.3687271   0.2099554   0.2393543  -0.9379138  -0.4780112   0.0815178
   1.5563363   0.1562597   0.6664513  -0.0528263  -0.1308757  -0.0458203
   0.4441557  -0.4909147  -0.4782919   0.3261233   1.3914757   0.0167065
   0.0671638  -0.1308480  -0.0868706  -0.3220960   0.3789417  -0.3382270
  -0.3864096   0.7576544   0.7504775  -0.2577813  -0.3374692   0.2560724
  -0.1543423   0.8052227   0.2480324  -0.5093502  -0.1596258   1.2787173
   0.0822178  -0.0209539   0.0137468   1.2270285   0.0400204   0.8397476
   0.2614766  -1.1823010  -0.0046750  -0.2523952   0.3364664  -0.0390448
   0.4597220  -0.1859102  -0.5124076   0.1483770   1.4462943  -0.1062875
   0.3103608  -0.1558906  -0.2432357  -0.9549887   1.1068695  -0.4735397
  -0.1722451   0.1401225  -0.8116429  -0.1166338  -0.2650665   0.1588974
  -0.5839170   0.7853871  -0.2945159  -1.3438815   0.5042690  -0.4394464
  -0.2519384   0.0371440   0.1925809  -0.3288268   0.5783688   0.0378105
  -0.9471188   1.2268466  -0.5652562   0.0435465  -0.2667643  -0.0286578
  -1.2419220  -1.0746045   0.0068216   0.3546456  -0.7664180   0.5426640
   0.0167930  -0.2263459   0.0032694  -0.9577067   0.8288989   0.7039294
   0.1245886  -0.0883819  -0.5006526  -0.0481622  -0.1650676   0.0359541
  -0.2604927  -0.2848636  -0.0741208  -0.1450468  -0.0553885   0.2350645
  -0.0330130  -0.1465831   0.1874774   0.4364505   0.3011986  -0.5081630
   0.6713254   0.5000563  -0.9809192  -0.0813523   0.0148636  -0.1483211
   0.9384773   0.0762343  -0.0939637   0.9288750   0.4231451   1.1641378
  -0.1499400   0.0310848   0.3023776  -0.8681958  -1.0764983   1.1011244
   0.7353810   0.0286211   0.1865800   0.1170197   0.1473770  -0.4376226
   1.6093989   0.4427756   0.2728637  -0.3988683  -0.0949446  -1.6928907
  -0.1130819   0.2100840  -0.3303115  -1.1189771  -0.1850595   0.9228267
  -1.0444626  -0.9377219   0.7760353  -0.0249223   0.0595580   0.1409864
  -0.7119799  -0.0365543   0.4375572  -0.1995470   1.4124796   0.1743912
  -0.2563167   0.2463975  -0.2516990  -0.4817282   0.0308853   1.2452225
   0.1023796  -0.2871002  -0.1310241  -0.0926888   0.1436385  -0.3476454
  -0.3996062  -0.8356981   0.4076651   1.5340422  -1.2464143  -0.0320235
   0.0562699  -0.5854236   0.0138855   0.0073999  -0.8554289  -1.0005435
   0.4344936  -1.1039253   0.4004678  -0.0720792   0.0885431  -0.0746470
   0.6337877   1.1723284   0.1455726   0.7280694  -0.7848416  -0.1268156
  -0.4752059  -0.0405157  -0.2570090  -0.9940538  -1.5815610  -0.3652353
   0.7332766  -0.5684006   0.3444850   0.1035257   0.4529560  -0.0167856
  -0.0012788  -0.3443194   1.6113639   1.5415978  -0.6802674   1.2130627
   0.1116025  -0.3098365   0.2271432  -0.0341595  -0.6947536   1.3979508
   0.6954694   0.2452765   1.3470052   0.2850697   0.0006340  -0.0906547
   0.4010402   0.4728044  -1.4936171  -0.8924526   0.7191515   0.0664313
   0.2475311   0.0569492  -0.5196206   0.1932271  -0.1663673   0.3021414
  -0.2409378  -0.0832438   0.9559142  -0.1816487   0.0723561   0.1526772
   0.0943163   0.7770889  -1.7072798   0.2745347   0.3359234   0.8907790
   0.2651442  -0.1752487  -0.2394607  -0.3369738   0.9914803  -0.7201345
  -0.5857016  -0.1565457  -0.8902280   0.1764978  -0.0065346  -0.1903540
   0.5656080  -0.4665791  -0.8643787   0.7250873   1.8192079   0.2362074
  -0.1516588  -0.0695577  -0.0569093   0.9008143  -0.1908360   1.3418588
   0.3028985  -0.3930686  -1.2087035  -0.1821013   0.1165689   0.3308588
  -0.7218123   0.0034616   1.5723093   0.8532154  -0.0909461   0.1428326
   0.0863287   0.1251186  -0.2427711   0.7050538   0.1494809  -1.5103798
   0.5111754  -0.2201308   0.0493225   0.1303832   0.0430188   0.2240234
   1.1913222   0.4390506   0.5199567  -0.5379772  -0.6671795   0.9304372
   0.1937273   0.1898844  -0.1205898  -1.3935261  -1.1054497  -0.1730836
  -0.1035316   0.1735097   0.0538842  -0.2022009  -0.0893794  -0.1860166
  -0.6269981   0.4053043   0.0227343   0.6986370  -0.7832935   0.0012796
   0.0897816   0.0228816   0.0723308  -1.3359873   1.8507951   0.7308140
   0.1953631   0.6812453  -0.5289606   0.3387433   0.5204237   0.3919046
   0.5316804  -0.4516499   0.3678348  -0.1989670  -0.7401083   0.5556530
   0.1607915  -0.1657690  -0.3609567  -0.9781802  -0.0008960   0.4084011
   0.6159149  -0.7416241  -0.1761399   0.1863206   0.0676164   0.0582949
  -1.1582163  -0.8116927  -0.7664552  -0.6610826   0.0284047   0.8573577
   0.2577804  -0.0573810  -0.0660307  -0.8350351   0.5153141   1.3618305
   1.1028231   0.2249908  -0.9875969  -0.2320769   0.0681320   0.1043257
  -0.5710308   0.1334885  -0.3730090  -0.4703340  -1.0627193   0.6191650
  -0.1974217  -0.2345972  -0.0014827  -0.6116259  -1.0841746   0.4368273
   0.4514967   0.4471837  -0.3942147   0.0481888  -0.0624328  -0.1968856
  -0.5213511  -0.5998055   0.4561217  -1.6963473  -0.6937415  -0.5586924
   0.0523692   0.2630503  -0.4465798  -0.5885488  -0.1923511  -0.0746232
   0.4399864   1.2955941  -0.6456919   0.4237673   0.2350439   0.0019863
   1.1838085  -1.1830967   0.0509674  -0.5869342   0.3024274   1.0728367
  -0.2637119  -0.1095083  -0.1077188   0.5716626   0.2597715   0.8442995
   1.0987627  -0.7518321   0.3026093  -0.2536408   0.0250744   0.1673188
   0.5194400  -0.3620823  -1.0902147   1.8985886   1.7526304  -1.2830736
   0.1210052   0.2270185  -0.2761378   0.1298176  -0.5160242   0.1134931
   0.6901947  -0.2816916   1.3103729  -0.3095416  -0.3772356  -0.1659185
   0.2377222  -0.6638331   0.5248236   0.3492141  -0.8890226   0.4019482
   0.2228958   0.1396172   0.1145565  -0.0200461  -0.1861105  -0.0165025
  -0.6773227   1.3089486   0.6660117   0.1799475   0.0352968  -0.5070052
  -0.6841735   0.7454516   1.8674152   0.1484785   1.2437839   0.4828721
  -0.2980700  -0.1734088  -0.0607519  -0.6833865   0.4437394  -1.5664334
  -0.3125207  -0.4768050   0.6178850   0.0804846   0.0029636   0.0434238
   1.3426366  -0.9764534  -0.5271823  -0.8291728   0.7913077  -0.5808059
  -0.1061502  -0.0408788   0.0392573  -0.5598981  -1.0684140  -0.9465555
  -1.8504599  -1.1416733  -0.6620217   0.0589546   0.2082382   0.0553760
  -1.8610792   0.3585056  -0.1516379   0.8286670   1.3178017   0.7665472
  -0.1565024  -0.2540856  -0.0009218   0.5002622  -0.0304041  -0.6108439
  -0.3752245  -0.5562476   0.4833256  -0.2594077  -0.1589636   0.0335637
   0.0664428  -0.6582623   0.1991938  -0.5675962  -1.1107071  -0.6055817
   0.2611196  -0.0356315   0.0372094  -0.6908993  -0.0373872  -2.1473344
   1.4875947   0.5922876   0.7246417  -0.1380862  -0.1147927   0.2934138
   0.2340938  -0.5744408   0.2699007   0.1402622  -0.0720995  -0.1008887
   0.0507671  -0.1771762  -0.3018673   0.1226987  -0.1663818   0.8265243
   1.0325322   0.8635468  -1.0285882  -0.3985809   0.0103253   0.2174226
   0.3863270   0.3940653  -1.7567235  -0.7703333  -0.5521881  -0.0335616
  -0.1596700  -0.0429072   0.0564699  -0.5954090   0.6502938  -0.8103143
   0.4954988   0.8308747  -0.0200860  -0.3634769   0.1597080   0.3058546
  -0.7313433   0.6193922   0.8293283  -0.0166101   1.0480882  -0.8783526
  -0.0742751   0.1709520  -0.3655470  -1.1663131  -0.7726320  -1.3725607
   0.5674791  -0.2754974  -0.4925428   0.1483865   0.0875545  -0.3403844
   0.3892293   0.6866600  -1.2599101  -0.2573046   0.3603142   0.6681653
   0.0858488  -0.0475730  -0.1564354   2.0968527  -0.2173520  -0.5989857
  -0.4250591   0.5810597   0.0712903  -0.0714200   0.2000753  -0.0734557
  -1.4538265   0.8358924  -1.0364209   0.4291328  -0.8134376   1.0559760
   0.2399196  -0.0012891  -0.2004478  -0.0780832  -0.2451596   1.3226412
   0.7388394   1.0774189   0.5074817  -0.1989239   0.2725709   0.1578252
  -1.0195153   0.0791876   0.9374763  -1.5920568  -1.5768233   0.4490209
   0.0045616   0.0329472  -0.0041880   0.1309467   0.6749966   0.0789710
   0.0928977  -0.2217599   0.0043917  -0.0622242  -0.0090089   0.0194743
   1.5157012  -0.8727913   0.4077499   0.7182258   0.2537742   0.0459849
   0.1987758   0.1214998  -0.1175549  -0.5800574   0.3640017   0.8869804
  -0.6460237  -1.6165267   0.0617064   0.0465510  -0.1142884   0.1246987
  -1.0458882  -0.6110279   0.2313179  -1.4827683   1.0209667   0.4052308
   0.4001028  -0.0817622   0.1399922  -0.0809074  -0.0777345   0.2625808
   0.1853933  -0.7218628  -0.6277492  -0.1678133   0.0507854   0.1859222
   0.1804710  -1.0585732   0.3295839  -0.7343979   0.5890952   0.2620282
  -0.6981922   0.1781601  -0.1080302  -0.3265049   0.5409683  -0.2090449
  -0.9250825  -0.9787150   0.7456183  -0.3736980   0.0850245   0.2278834
  -0.9790469  -0.9945475  -0.6897105   0.6449892  -1.0805374   0.2979330
   0.0200188   0.0705065   0.0289898  -0.9021812  -0.6595623  -1.0477322
  -1.7716026   0.6998259   0.4135923  -0.1328869  -0.1708300  -0.1138233
  -0.2370332   0.2522609  -0.3480458  -0.9692904  -0.0979362  -1.5089057
   0.3435609   0.1606883  -0.1146848  -0.2244846  -0.1227491  -0.8969258
   0.1339393   2.1036966  -0.2294797   0.2711406   0.3949130  -0.0355510
   0.4820481  -0.2497466  -0.0334704  -0.4711140  -0.3684553   0.3329853
  -0.4000932  -0.0416039   0.3727850  -1.5748170   0.0166298   0.8768664
   0.8001464  -0.1686426   1.1600084   0.1864332  -0.2242464   0.0781566
  -0.2989710  -1.3457366  -0.9518608   1.1313700   1.2070643   0.2513257
  -0.3789397  -0.3740866  -0.3484100   0.8903670   1.6360774   0.4725361
  -0.6676101   0.3398566   0.7935921  -0.3873955   0.2271370  -0.2399589
  -0.8484164  -0.1710771   0.2875999   0.7731077   0.5276933   0.3793241
   0.1099700   0.1112932   0.2066894  -0.3933399   1.0658935  -1.2552843
   0.3868620   0.3856767  -1.4900425  -0.2904727   0.1485634   0.0978420
   1.1700355  -0.3149055   0.1568771  -0.9320653   0.1082418   0.5034104
   0.0622420   0.0300986  -0.0839597  -0.3188873  -0.7925846   0.2678813
   1.2507805  -0.4875824  -0.4349703  -0.1268282  -0.1057403   0.2321583
   0.3230871   0.2654157  -0.4653083   0.7107027   0.0791291   1.7386640
   0.0758593   0.1619660   0.0115169  -0.4905948  -1.1760135   0.4984899
   0.9400012  -0.2190744  -0.8208505  -0.0715959  -0.0563662   0.1979359
   0.2317385  -0.1626590   0.6040280  -0.0516411  -0.2489920  -0.1272434
   0.3762684  -0.0832552   0.3898273  -0.5928985  -1.5075745   0.5304676
   0.1649928   0.2067753  -0.3286749  -0.1629289   0.1121448  -0.2213979
  -0.5939309   0.4243776   0.5286817   0.5053564   0.0715457   0.2500441
  -0.5612920   0.0345810   0.3144985  -0.3621807  -0.3601916   0.0128971
   0.9839464   0.2269876   0.9205207   0.2514849   0.1639029  -0.2449354
   0.7417208   0.2978231  -0.0955979   0.9629691  -0.3340088   0.5215730
   0.0011404  -0.2560605  -0.0905660  -0.9229960   0.2486929   0.0112771
   1.2121855   0.9204046  -0.7262613  -0.1686189   0.0202079   0.1868784
  -0.0433192  -0.8183654   1.0278190  -0.7757995   0.9565254  -0.6344241
  -0.1396275  -0.5111950  -0.0820385   0.7559542   1.1252630   0.4206171
  -0.6484092   1.3949097  -0.3992277   0.3545809  -0.1789248  -0.1419460
   0.9266621  -0.1828227   1.0376486  -0.5843276   0.4329848  -1.7050767
  -0.3473892   0.4041921   0.3633929  -0.3888346   0.9711703  -1.7465474
   1.0208459  -0.6560448   1.0837767  -0.2312248  -0.0316892   0.0182377
  -0.8304496  -0.2128231  -0.2890661   0.9655715  -0.4448719   1.1481892
  -0.1022108  -0.0951451   0.1572689  -0.4358971  -0.7327500  -1.0248498
  -0.5587603   1.0184123   1.0079283   0.0385569  -0.0034839  -0.2655909
   0.8730140   1.0330834  -0.4716971   0.5923980   0.2771026   1.1722774
  -0.1679451  -0.1368598   0.0606167  -0.1454487  -0.6133349   0.1259058
   0.1606278   0.0920191   1.1541287  -0.3657364  -0.0768874  -0.1602186
  -0.8816625  -0.1904986  -1.7217535  -1.2754500  -0.7690317   0.2679811
  -0.2526679  -0.1554408   0.3348913   0.1787224  -0.1479951  -1.5179846
   0.6275796  -0.0064272  -0.6266265   0.1039511   0.0236081  -0.2772323
   0.8615394  -0.4879509   1.5762294  -0.0110833   0.3789187  -0.9268853
   0.2317333   0.1199981   0.0213031  -0.2395016   1.7203519   0.8998217
  -0.6924126   0.0149054  -1.1027595   0.0477476   0.2519091   0.3179632
   0.9474013   1.5230945  -0.4015709   0.0750759  -1.6185692  -1.5945741
   0.0059322   0.0878571   0.0246878   0.8389741   1.0436957   1.3089146
  -0.1393330  -0.0421486   0.2942662  -0.1999844   0.1826927   0.0633084
   0.8378703  -0.7391162  -1.1160947   0.2617778   0.5716879  -0.5519481
   0.1739452  -0.2567278  -0.1909331  -0.2864000   0.9662920   1.9214723
   0.7313674  -1.0639992   0.2489064   0.1011476  -0.0990286  -0.0836082
   0.7952084   0.4717674   1.2460950  -1.5535075   0.3175704  -0.1753059
   0.2569713  -0.2449774   0.3670895   0.3324880  -0.2001763   0.2015648
  -0.0987162   0.3666742  -0.5630023  -0.0446674  -0.3946911   0.0690507
   0.3828999  -0.0766637   1.0113236   0.6959401   0.3232077  -0.2631329
  -0.0380682   0.1917706  -0.3304898  -0.9973244   0.8011848  -0.4442565
  -0.9378329   0.2354686   0.3869676  -0.1399913   0.1389518   0.0867901
   0.4416997   0.3593349  -0.0264732  -0.3322304   0.0465079  -0.1840076
  -0.2191716   0.4710927  -0.2931566   1.5374704  -0.2584198  -0.7191730
   0.6021363  -0.0209401   0.6323209   0.2186820   0.1254139  -0.0532020
   0.2519927   0.8736724  -0.3290011   0.9667897   1.1579079  -0.0296441
  -0.0155751  -0.1564416   0.0198468   0.4152615  -1.4572572   0.4113208
   0.0015826  -0.9262226   0.7639053   0.2794920  -0.5633235  -0.1991095
  -0.9117957   1.6183102   2.5888198  -0.1507926  -0.1975975  -0.2033097
  -0.1651156   0.1242102   0.1903580   1.3795873   1.1137085  -0.4994420
  -0.2381168  -0.6901531   0.6897797  -0.0706008  -0.1021230  -0.1674716
   0.4946570  -0.0127199   0.3128973   0.4809530   0.9714144   0.2686050
  -0.3331038   0.1560427  -0.1814919   0.3435927   0.4885054  -0.4837119
  -1.1913650   0.3433075  -0.0691565  -0.3357381  -0.1141466   0.1487245
  -0.4435897  -1.1932893  -0.9154180  -0.2669697   0.1985703   0.1301273
  -0.3994304   0.0726583  -0.0792744   0.8198051  -0.1006653  -1.5970790
  -0.5318082  -0.5232737   1.3412474   0.1106425   0.2779350   0.1067049
   0.2005848  -0.7691652   0.1267423   0.7067147   1.4352937  -0.5091254
  -0.1349906  -0.2050528  -0.1629631   0.2839601  -0.0355526  -0.5328112
   1.0605016  -1.7348408  -0.1756287  -0.3466776  -0.1324201   0.0240691
  -0.5328977  -0.8617175   0.0705249  -0.6443445  -0.7762064   0.7488745
   0.1447342  -0.1671056   0.1631307  -1.0068124  -0.6666800  -1.6355329
   0.1235271  -2.2174144   0.1418449   0.5352663  -0.1157557  -0.1401461
  -0.6234780   0.7231860   0.4374426  -0.7736576   1.8980294  -1.0179381
   0.0886058   0.1938510  -0.2653967  -0.2319621  -0.0697614   0.5015765
  -0.1265809   0.1612385   1.0976743  -0.1955120   0.0762059   0.1599082
   1.3111591   0.4196290   0.1695472  -0.7559826  -0.2361852   0.0800537
   0.1169119   0.4893785   0.2468597   1.0015249   0.9966776   0.6538886
  -1.5136976  -0.5378327  -0.3693502   0.1613847   0.1695754  -0.2790274
  -0.1545745   1.3068904  -1.1818435   1.4777296  -0.8152409   0.7338215
  -0.0057781  -0.2178530  -0.1387258   0.8212468   0.4248877  -1.2392699
   0.4117535   0.6157719   0.7770293  -0.1212378  -0.4095847   0.2571768
  -0.5686005   1.3961924  -0.8458601   1.0503302  -1.1688541   0.2638019
  -0.1872211  -0.1189395   0.3172331  -0.8707172   0.7056950  -0.5346280
   0.3248876  -0.5360777   0.9078336  -0.2159045  -0.0563265  -0.1428670
  -0.9984706   0.4347852  -0.8907016   0.0570121   0.0703663   1.1809894
   0.1713240   0.1751611   0.2012319  -0.6741111  -0.9270317  -0.7431879
  -1.4911826   0.2181421  -0.2076673   0.2054539  -0.0189272  -0.0572008
  -1.7028095   0.3733446  -0.2989801  -0.5870010  -0.7251858  -0.8020175
   0.0968458   0.0604909   0.0478179  -0.7419249  -0.4115175   0.6508781
  -0.2043449   0.2290024  -0.4488163   0.1046740  -0.3819654   0.1504539
   0.5153967   0.1752003   0.3140231   1.1354331   0.3437885   0.1214037
   0.1959710   0.2071282   0.2689405  -0.2541962  -0.1699328   1.1753198
   0.9796671  -0.5232891   1.0012950  -0.2248402  -0.0051377   0.1838928
   0.7139667  -0.3340468  -0.2600748  -0.5808974   0.2963087  -0.0106853
   0.2489020  -0.1865846   0.3444379   0.2393060  -1.3281738   1.8028429
  -0.1009015  -0.4789014   0.9062754  -0.1532987   0.0044687  -0.0108572
  -0.6401252   0.3140717  -0.5084170   0.6432244   0.9667592  -1.2110413
  -0.3740798   0.1556715  -0.0007531  -0.2410768  -0.8958793  -0.0892016
  -0.6617633  -1.3464185  -0.6178608  -0.0546367  -0.0676579   0.2352127
   0.0169441   1.1973275  -0.3895357   0.3934954   1.1343887  -0.2404133
  -0.0239914  -0.2426279   0.2847471   0.0615561  -0.0852556   0.3743486
  -0.8003786  -0.8873375  -0.4127805   0.1022754  -0.1248548  -0.0032325
   1.5498452   0.0693693  -0.2117828   0.0603175  -0.4774005  -1.1601089
  -0.0268262   0.1321187   0.2264477   0.1549246  -0.3266768   0.4807845
  -0.2366294   0.3246158  -0.5261470  -0.1389293  -0.0502435   0.0260810
   1.0464801   0.4180435   1.4592095   0.2321077  -0.2652426  -0.4774847
  -0.0999264   0.2625261   0.0905415  -0.1504811  -0.8022605  -0.6291808
  -0.9007775  -0.4698666   0.3423436   0.0112746   0.3386000  -0.2395615
  -0.3211612  -0.5811099   0.4930945  -0.2728766  -0.7769066   0.8595244
   0.1152785   0.3244186   0.1332338  -1.7714881   1.1700157  -0.9203127
   0.2174412   0.3692790  -1.0441337  -0.0607420   0.0750965   0.2055476
   0.0173148  -0.5623802  -1.3568616   0.9787725  -1.4610033   0.5502518
  -0.2737354   0.1814143  -0.0361264  -0.5232762   2.4029297  -0.3098830
   0.1725102   0.8536391  -0.0485083  -0.0975594   0.0137683   0.1245014
  -0.6661955  -0.6522674   1.4987882   1.0759737  -1.1202005  -0.4060615
  -0.0058442   0.1221061  -0.0017472   0.0740457  -0.0767330   0.6499865
  -0.8250186  -0.1636815  -0.0641992  -0.0833151  -0.2911492   0.1724692
  -1.2668531   0.5566796  -0.3916970   0.9279856   0.4300534   1.0247345
  -0.1658319  -0.2033869   0.2538339   0.2045716  -0.1315203  -0.5661145
   0.0772582   0.0327136  -0.5824380  -0.0233182  -0.0698046   0.0403477
  -0.7022376   0.1870198  -1.2988623   0.3622069   0.1385686  -0.4441009
  -0.1616339  -0.2509751   0.3256621   0.5892828   0.1024791   0.3002973
  -0.3234378  -1.0996538  -1.3174069   0.2120871  -0.1797457   0.1646457
   0.1959106  -0.5608151   1.0642948   0.4814427   2.3633640  -0.6729227
  -0.0308656   0.1398818  -0.1236430  -0.3756721   0.0978900   0.7001292
   0.7868264  -0.7487912   0.6297793  -0.0715043   0.0394236  -0.0639506
   0.5439299   0.4570804   0.6563177  -0.6415635  -0.4940763  -0.4179498
   0.1708343   0.0224105   0.0714467   0.1331914  -0.3525656   0.3789666
   2.3499324   1.1369067  -0.3193043   0.0262625   0.1524100   0.0155669
   0.4884354   1.0665996  -1.2315556  -0.4554163  -1.1770541  -0.5711187
   0.0358179  -0.1047127   0.1309989  -0.7439443  -1.0553157  -1.4422941
  -0.7656136   0.5910177  -0.4949376   0.2750656   0.1473284   0.1295871
   0.0924454   0.6931015  -0.7207414  -1.0675554   0.4053422  -0.6696361
   0.1941189  -0.3299924   0.0982685   1.1784395   0.5969428   0.6921105
   0.8535445  -2.2306376  -1.0543496   0.2193917  -0.3832248   0.0427656
  -0.6661430   0.0465593   1.4618425   0.9655199  -0.1088513   0.2502505
  -0.0458272  -0.0741981   0.5270985  -1.2189784  -0.4772519   0.6413262
   0.5883591   0.0888075   0.7248713  -0.0024014   0.1336120   0.1405360
   0.2714278  -0.3303930   0.9559312  -1.0395975   1.3703573  -0.5217018
  -0.0381282   0.1017715  -0.1938939   0.3432699   0.1281248  -0.2945051
   2.2088473   1.3838786   0.8231116  -0.1776195   0.1846392  -0.2475074
  -0.2281547   0.0673958   0.3755546  -0.0152781  -0.4329835   0.5085928
   0.3033598   0.0204264  -0.0390233   0.7900431   0.1346395   1.4036180
  -0.1786266  -1.0280076  -0.3333104   0.2407601  -0.2863892  -0.0105078
  -0.3986430   0.1469518  -0.6784295   0.5202205   0.9531094   0.9039641
   0.0856472   0.2727004   0.0359066   1.1426829  -0.5829703   0.0571920
  -0.2998511  -0.2192597  -0.1524776  -0.3130484   0.2818480  -0.0019987
   0.0488511   0.4265844   0.4387695  -0.0214491   0.1614264   0.1937543
  -0.2928401  -0.0009562  -0.0357246  -0.5668919   1.2508444   0.0232603
  -0.2727152  -1.8246766   0.2427384   0.0206595  -0.2324202   0.0546118
  -0.2438956  -1.2418526   1.0804903   0.6161682  -0.4644683  -0.0983441
   0.1272850   0.1658296   0.0063427  -0.6758411   1.1534630   1.9304653
  -0.3640123  -1.6128361  -0.9683665  -0.1216067  -0.0444017  -0.1642142
   1.1001407   0.2980606   0.0309539  -1.2745089   0.5505240   0.0272167
  -0.2314091  -0.3983042   0.0181779   0.6610500   0.2179157  -1.3513997
  -0.2289004  -0.6440883   1.3748887   0.1544214   0.0195438   0.2625177
   0.5080558   1.1492168  -0.3539823   0.0912815   0.3087495  -0.9055108
   0.0129489   0.0078165   0.0068126  -0.0115913  -1.2274667   1.9615955
   0.1617069  -1.4431041  -1.6892962  -0.0707857  -0.1920897  -0.1532675
  -0.4580973   0.0962478   0.7031915  -0.3399385   0.8183315  -1.3684337
   0.2470565   0.0551954   0.2579987  -0.3011567   0.7172321  -0.8724822
   0.0313108  -1.1570950  -1.4935020   0.3636853  -0.2482420  -0.2545419
   0.9270101  -1.0387885  -0.3514483  -2.2577212  -0.9176428  -0.8483017
  -0.0290022   0.2247982  -0.2462135   0.8945139  -0.7314250  -0.3905524
  -0.1168507   0.3342844  -0.3939204   0.0090474  -0.0622426  -0.1866774
  -0.6048774   0.2634164  -0.3742440  -1.2045954  -0.4033267   0.6616197
   0.0022567   0.0549122   0.0798873  -0.3799509  -0.1423757   1.1301708
   0.6198826   2.0120164  -0.8049671  -0.0024777   0.0061235  -0.2200334
  -0.7821989  -0.6105045   0.5975466  -0.6881393   1.0449980  -0.1791423
   0.0408315   0.4288594  -0.0548811   0.2456398  -0.8059244   0.4396876
  -2.1540490  -0.0473190   1.4248779  -0.3067501   0.0276010   0.0571710
  -0.9261159   0.6789319  -0.4608681   1.3478857   0.1040803  -1.0612786
  -0.2084557  -0.1823884  -0.2739840   0.6004523  -1.1325224   0.6931784
   1.3969150  -1.1326455   1.0670141  -0.0685110  -0.0870343   0.5651284
   0.6403425  -0.6629175  -0.3645210  -0.4570764  -0.8320264  -0.4433067
   0.0764745   0.1532711  -0.1614939   1.0882301  -0.4803680  -0.2166613
  -1.8101663  -0.6759976   0.8627532   0.0680226  -0.1747763   0.0008487
  -0.5202126   1.9895647   0.3023763   0.8292882  -0.8051688  -2.1460570
  -0.0392262  -0.5099807  -0.1919014  -0.4629601   0.1350493  -0.3432764
   0.2662026  -1.1770307  -0.4119536  -0.0307169  -0.1340541  -0.0019121
   0.6204350  -0.1408558  -0.8490201  -1.2843461   0.2249206   0.4905239
   0.1987670   0.3448349   0.2522743  -0.4688277  -0.6440852  -0.5881859
  -0.0050552  -1.0644926   0.0059234  -0.0393417   0.3913544  -0.0905859
  -0.1844778   0.6663430   0.7383864  -1.6706460   0.1835871  -0.3221904
  -0.2072787   0.3250570  -0.2170935  -0.5627542   0.0168438   0.7104995
  -0.4952794   0.3587943  -0.6191675  -0.1149832   0.0566932   0.4190838
  -0.7520673  -0.3767456  -0.1796084   0.8587403  -0.4859110  -0.1133678
  -0.4294405  -0.1015139  -0.1812377   0.8102417  -0.2354720  -0.9088737
   0.0269119   0.0395061   0.0276248   0.1261421  -0.0022866  -0.0378710
  -1.0255688  -0.1269881   0.7732604   0.2084803  -1.4688647  -0.3971226
   0.1638671  -0.2670963   0.4075181   1.1565952  -1.3368598  -0.7843273
  -0.7940904   0.1063678  -1.0964095   0.2905471   0.1216776  -0.2277501
   0.5489255   0.1501148  -0.5298945  -0.9761653  -0.2020079  -1.2139996
  -0.0956054   0.0954056   0.0074917  -0.7113775   1.6530255  -1.1868948
  -1.0700408   1.1986372  -1.5802845  -0.0755778  -0.2500532   0.0241542
   0.2538700  -1.0995684   1.0176732  -0.1901802  -0.1775516   0.4137890
  -0.0756469  -0.1262913  -0.0033907  -0.1500161   0.3301326   0.1529780
  -0.6308979  -0.9017541   0.5347670   0.0376396   0.2207063   0.1986635
  -0.3872763  -0.1725769   0.5452574  -0.3759362   0.4089639   0.0962784
  -0.2581972   0.3752475  -0.0952560  -0.4831043  -0.0305165   1.5602247
   2.0728939   0.7740868   1.4649177  -0.2831984   0.0570198  -0.2256890
  -0.5392067   0.0035531   0.0334580  -0.0572526   0.6649372   1.0707189
   0.0706422  -0.1889174  -0.0454321   0.7441382   0.2575267  -0.0696504
   0.4427554  -0.5634709   0.1023085   0.4028419   0.2060910  -0.0744421
  -0.8514927   0.5718950  -1.2314534   0.0276632  -0.1682791   0.3183087
  -0.0392894  -0.0333910  -0.4522908   0.3233243   0.3269126   0.2448590
   0.2711635  -1.4067989  -0.5384800   0.0085402  -0.0378806   0.1112513
  -0.1918708  -0.3516359  -1.5217779   0.2631089   0.7468236   0.1725282
   0.2612226   0.1804768   0.3441344   0.5357266   1.9716207   0.3024204
   0.4122203  -1.1174236  -0.1388279  -0.1008860   0.0706708   0.3785982
  -0.7035600  -0.9090071   0.5939694  -0.7865307  -0.0861009   0.4044007
  -0.1665360  -0.0660163  -0.1603177   0.0033548  -0.6619167   1.1594371
   0.5376490  -0.8311484  -0.3020224  -0.4789836  -0.3560062   0.0330064
   1.2947175  -0.5106078  -1.8793894   1.4957036   0.0220015  -0.5793728
  -0.3228135   0.0174664  -0.1512614   0.2456194  -0.1029076  -0.5606564
  -1.0220220   1.0238325  -0.2485922  -0.0846778   0.1744991   0.2373831
   1.9519116  -1.6123591   1.1258991  -1.3563239  -0.9499779  -0.6845329
   0.3227046  -0.1123672  -0.1568860   0.3200207   0.8132488  -0.3971877
   0.7587216   0.9318912   0.1668898  -0.4825844  -0.1607692   0.2463060
   0.5678514   0.2518207   0.5491700   0.1606393  -0.6861481   0.9703192
   0.0418949   0.2448928  -0.2585139  -0.3745337   0.5261919   0.2939701
   0.0081464  -0.7738342   0.4313087   0.4709454  -0.3113256   0.1348859
   0.6825956  -0.8060275   0.3337558  -0.2833136  -0.0616208   0.5054973
  -0.1294958   0.0600501   0.0421745   1.3890199  -1.9374554  -0.1103004
  -0.7164161   0.0993448  -1.9326963   0.0750575   0.0813006  -0.1088393
  -0.7805068  -0.0991416   0.6315796   1.0427768  -0.2531973  -0.0518882
   0.3144904   0.0498372   0.1625684  -0.2511810   1.1492503  -0.2664333
   1.9214485   0.9472771   0.0567302   0.1379987   0.2768382  -0.0850145
  -0.1403435  -0.8492002   0.8753364   0.5016177   1.1899849   0.8151833
   0.2684897  -0.1623143   0.0241283   0.5309292   0.2109966  -0.7602104
  -0.3760118  -0.1924445   0.3999063   0.1401720  -0.0236297   0.0962639
   0.2485051  -0.2081586  -0.1342370  -0.3006389  -0.5139288   0.8797864
  -0.3017849  -0.1991252   0.0715619   0.2359916   0.9677334   0.7695994
  -0.7290611   0.5555416   0.2338874  -0.1092883   0.1823669   0.0539303
   0.8785804  -0.6626312   0.9869906  -1.1453556   0.7498665   0.3057826
   0.1424417   0.0062074  -0.1834171  -0.0623822  -0.1050065  -0.3103649
   0.5885487  -0.9244478   0.6047394   0.1232528   0.0665894  -0.1326491
   1.7549971  -0.3143184   0.4101853   0.9324173   0.2757584   0.4458525
  -0.0960050  -0.1841219  -0.0812987  -1.3884155   0.2172002  -0.9099130
  -0.4504359   0.3544615  -1.3435563  -0.1515319  -0.2071415  -0.2655525
  -0.1580510  -0.3244115   0.1473545   0.2487973  -0.0579336  -1.0693777
  -0.0102923   0.0408342  -0.0281527  -0.8991250   2.1212217   0.0165800
  -0.3561858   0.3047326  -0.2245822  -0.1896369   0.4234356   0.1564834
  -1.0408006  -0.5550599   0.2971750  -0.1474177  -0.3580468   1.1457688
   0.0997706   0.0956222   0.0098823  -0.1067560   0.4115571  -1.0518291
  -0.8632790  -0.1047266  -1.5476497  -0.0326654  -0.1579284   0.2275097
   0.2105785  -0.7658547   0.2215818  -0.6422202  -0.9365340   0.1938004
   0.3138623   0.0540673   0.1609279  -0.2931578  -0.1394290  -0.1312989
  -0.7655368  -1.7141320   0.1745035  -0.0456491  -0.1398620   0.1484098
  -0.3585822   1.1147144   1.0363380  -0.4970743  -1.4784128   0.8046659
   0.3792716   0.0323934   0.0492199  -1.3498377  -0.4601149  -0.7976218
  -0.3701722  -0.5921070  -1.1738263  -0.0662587   0.0947553  -0.1706851
   0.6610647  -0.5723665  -1.1526876  -0.0129907  -0.2818610   0.5378205
   0.3307104   0.1498348   0.3930645   0.5477501   0.7564621   0.2222552
  -0.6201215  -0.2091900  -0.2716861   0.1287094  -0.0807301  -0.0443481
   0.3869356   0.5250775  -0.1250525   0.4088963   0.3799553   0.2453857
  -0.0594182   0.0476022  -0.2380141   1.2660266   0.6223857  -0.8658223
  -0.9465074  -0.5318389  -0.0182943   0.0841499  -0.2152744  -0.2739047
   0.3233110  -1.2956728   0.3636451   0.7858890   0.1371146  -0.4343464
   0.2493626  -0.1837743   0.3319615  -1.2624091   0.5228458  -0.5181884
   0.1621270   0.3944802  -0.9201508   0.1485520   0.4170092  -0.2434208
   0.1517317   0.7221062   0.4972110   0.1280217  -1.0754721  -0.4368852
   0.5945559  -0.0283389   0.0247322  -0.3228160   1.9390105   1.5971447
  -0.1945437   0.0424003   0.5879801  -0.1675278   0.0770740  -0.2145773
  -0.1149977  -0.1011874  -0.5277209   0.3215003  -1.2702347   0.1498337
   0.1701391  -0.0333264   0.0375589   0.7178756   0.0528737   0.0852919
   0.2951931  -0.8540539   1.6016973   0.2833658   0.0265461   0.0791230
   0.2043784   1.9007312  -0.3014578   0.0679145  -0.7112144  -0.2500593
   0.0831687  -0.3259996  -0.3032888   0.8030183  -0.7756205  -0.5570725
  -0.0215155  -0.8084172  -1.0475875   0.1960548   0.0187014  -0.3261701
  -0.9069948   0.5822958  -0.2479957  -0.8249299   0.5901793   1.6394089
   0.1053451  -0.5407212   0.1726884   1.2713687   1.0066943   0.4152282
  -0.5698021   0.0026820  -1.3673968   0.1746588   0.0903872   0.1819999
  -0.4353407  -0.0941158  -0.1820272   0.8246123   1.6775115  -1.3050070
  -0.1729763  -0.1776714   0.4631291   0.0606542   1.7011106   1.0596441
  -0.9566322   0.7355895   0.5516159  -0.0249418  -0.1786583   0.0094243
  -0.2244546   0.4282356   0.2225384  -0.2904804  -0.8995548  -0.8305847
  -0.0446488  -0.0590006   0.0697468  -1.3528476   0.4142290  -0.4984485
  -0.1564627   0.7377011  -0.1724607  -0.0282816   0.1002474   0.2210462
  -0.2476214   0.6506008   0.9401975  -0.6305612  -1.3425977   0.0418603
  -0.1153602   0.1232551   0.1210807  -1.2776956   0.1172574   1.5037349
   0.2397893  -0.0593958  -0.6330847   0.4733044  -0.1061304   0.1074890
  -0.7872389  -0.7102024   0.6781177  -0.5736514   0.3033427  -0.2555292
  -0.0506996  -0.0577669   0.1747407  -1.1324622   0.9778379   0.0641071
   0.3396344  -1.1117931   0.6512176  -0.0197948   0.1228551  -0.1458297
  -1.0169665   0.2103212  -0.6367703   0.4762587  -0.9345965  -0.0147473
  -0.2189806  -0.2019402   0.0858708  -0.5395779  -0.5448566  -0.2112434
   1.8285980   0.3901196   0.2282191   0.1255466  -0.2016256   0.1902336
   0.4500328  -0.2235702  -0.1139897   0.3066168   1.3939774  -0.8781775
  -0.0357805   0.1108098   0.0717948   0.1615538   0.4597185  -0.6654723
   0.1943401  -0.9291500   0.2391033  -0.0061816   0.2620233  -0.1902909
   0.1357049  -1.2916301  -0.4748465   0.3609809   0.3611395  -0.4288763
  -0.5099797  -0.2556221   0.1653967  -0.5097692   0.1906009   2.1197702
  -0.8182448  -1.2865644   0.1552690   0.2001424   0.0356197   0.0764129
  -0.0195241   0.2892959  -0.4274148   0.7512750   0.7247594  -0.3005836
  -0.3555373  -0.1417023   0.0549591   0.2186437   1.1819022  -0.2561471
   0.7318023   0.0470806  -0.7743725   0.2635922   0.3264827   0.0988334
  -0.8082999   0.4062847   0.5929717   1.0051337  -0.6439699   0.7493947
   0.0994716   0.0093043  -0.0153827  -0.4224841   0.4995022  -0.3282693
  -1.3088072   0.8803955  -0.3486106   0.2722265   0.1542067   0.0240329
   0.4182836   0.3800518   0.7756117   1.1847319  -0.2946970  -0.1363785
   0.0070807   0.2475286   0.1483024   0.3012797  -0.4093529  -0.9399897
  -1.3805090  -1.0006147  -0.1220550  -0.0038971   0.0428212   0.1647375
  -0.0662223   0.2514168  -0.8453849   0.3836818  -0.3829161  -0.6682712
   0.4382508  -0.3571073   0.0872518  -0.6727051  -0.5012020   0.3007968
   0.4581805   0.5525414  -0.8179215   0.1866392   0.2744630  -0.3020832
  -0.6818137  -0.9520254  -1.5430307   0.5872280   0.0398578   0.5452298
   0.2580516   0.2155072   0.1506604   1.1598935   0.1910482  -0.7365398
   1.2117232   0.2519692   1.0422315   0.0838154   0.1225799  -0.1809292
  -0.7067187   0.2683817  -1.1443847   0.5229490   0.9698614   0.3859434
   0.1400963   0.2614230   0.2130811  -0.0980244   0.2690244   0.7216251
  -0.5126211   0.3773438  -0.5148409   0.0658101  -0.2254312  -0.1856319
   0.2853425   0.6945082  -0.9102029   0.8069870  -2.2471477  -0.8030611
   0.1227074  -0.0195056   0.0402356   0.2312774   0.6762613   0.7960547
   0.4006747   1.1928711   0.4641363  -0.0549330  -0.3499349  -0.0181550
   1.7731031  -0.9361826  -0.1128080   0.2007262  -0.5117244   0.0698420
  -0.2171861  -0.0620907  -0.0498279  -0.7556950   0.3887091  -0.2959589
   0.2422727  -0.2442951   0.0328432  -0.2148430  -0.1792358   0.5397900
  -0.8250193  -0.0615976  -1.3477071   0.3232791  -0.6737784   0.5606656
   0.0362771   0.0779269   0.0565359   0.4697391   0.3467458   0.2737560
  -0.5571510  -1.0620509   0.8219027   0.0922504   0.1064005  -0.1082738
  -0.2444136   1.1959006  -0.5500493   0.6054153   0.1482579  -0.7898931
  -0.2268253   0.0785460  -0.2409868  -0.4705859   0.4474372  -0.3561229
   1.4911782  -1.3235295  -0.3116114   0.0745891  -0.0685944   0.1645469
  -1.1574062   0.7777408   1.3646297   0.0239927   0.2892901   0.8927058
   0.2260722  -0.0752910   0.2155907   0.2540944   0.7499573  -0.4490979
   0.6840806  -0.8393706  -0.1742617  -0.1266510  -0.0465472  -0.1792439
   0.2978213   0.5256641   0.3280577   1.1606136   0.7723110   0.1596712
  -0.1752709  -0.0577022  -0.1126854   0.2669710  -1.7901600  -0.8003812
  -0.1893678  -0.5506973  -0.6114548  -0.0117976   0.2608900  -0.0292442
  -1.7016229   0.5011340  -0.4800944  -0.0536898  -0.8026715  -1.2584502
  -0.1336489  -0.5867079  -0.3093785  -1.2522654  -0.9616459  -0.4994068
   1.1745099  -0.6972450   0.4026073  -0.2548411  -0.1000255  -0.1061391
  -0.2003257  -0.0213910   1.6073819   0.4261704  -0.5682116   0.3420164
   0.0256174  -0.0663029   0.2609886  -1.1695722  -0.5341432  -0.7437401
   0.1358525   0.0525329  -1.4866727   0.2526664   0.2426988   0.1587239
  -0.7875285   0.5395630  -0.7132206   0.2999884   0.4291723   0.0817049
  -0.3295088  -0.0278287   0.0920646  -0.4995867  -0.7446401   1.3515299
   0.9292353   1.4491101  -1.0025367  -0.0820351  -0.3734138   0.2046558
   0.7279788   0.8870955  -0.4398786   0.7541192   0.5726428   0.1801811
  -0.1592297   0.2593546   0.2001858  -0.1905857  -0.1152610  -0.1322126
  -0.0849417   0.2199347  -0.3833092   0.0387052  -0.1249822  -0.2931885
  -0.4241189   0.5921759  -0.8386836   0.4645289   0.7120193  -0.8134596
   0.0668395   0.4214611  -0.0506763  -0.2659365  -0.6361327  -0.5238359
   0.4003796  -0.5199269  -0.4094458  -0.0926448  -0.0660524   0.0510570
  -0.8328522   0.4907859   0.2815041   0.4552235  -1.1037841  -0.2660960
   0.0332125  -0.0298645  -0.0742157  -0.9952328   0.0536378   0.2796549
  -1.0537604  -0.3551272  -0.2007106   0.0658940   0.2482602  -0.0411307
  -1.4326547  -0.1466269  -0.1070261  -0.8598846   0.9390469  -0.6400045
   0.2167269   0.3776647  -0.0172497  -0.5298720   0.5110031  -1.5285098
  -0.2356479  -1.5825063   0.2644670   0.1244758   0.0015628   0.0897755
  -1.1766890  -0.3932160  -1.7648316  -1.2288952  -0.1723293  -0.1344899
  -0.1806548   0.0913318   0.0123601   0.3213235   1.3933286  -0.9281274
  -0.3775547   1.0012382   1.1388344  -0.0248233  -0.0817879   0.1357432
  -0.0945430   0.7527139  -0.8366887   0.5405333   0.2399106   0.4751472
   0.0312062   0.4946586   0.1876655  -0.3638286  -1.8402378   0.4255913
  -0.1185935   0.0598953   0.5715034  -0.0833096   0.1661307   0.1338736
  -0.7752098  -0.2616217   0.8347598  -1.1245874  -0.4719358   0.3534419
  -0.3656216   0.0348368  -0.0039450  -0.3441466  -0.1315795  -0.1651627
   0.1078803  -0.6588306   0.0067828   0.1450359  -0.0527439   0.0197900
  -0.8680398  -0.2810276  -0.7623525   0.2993644  -0.2721957  -0.7219378
  -0.2190681   0.3412772   0.2522840  -0.2707510  -0.4568060   0.8104362
   0.6797961  -0.2894972   0.5928851   0.1339845  -0.0490933  -0.1821867
   0.0496653  -0.3081738  -0.5679907   0.1910895   0.6977701   0.2782651
  -0.4213901  -0.1422986  -0.2524307   1.3337537   0.0827805   0.1205797
  -1.0337938  -0.6932008   1.1902945   0.5050719  -0.4443715   0.1030737
   0.6939922  -0.9618022  -0.3278730   0.2289347  -0.8906160  -0.0837372
  -0.0155420  -0.0088142   0.3023127   0.1599495   0.5782296   0.5147614
  -1.4583382   1.2004348  -0.8314829  -0.3615463  -0.1712255  -0.0241200
   0.4520164  -0.3001822   0.2705329   1.1262789   0.8722898   0.4710545
   0.1862613   0.1809350   0.0678514  -0.7475634   0.1257636   0.8781101
  -0.0269163  -0.5933867   0.1814684  -0.1449297   0.1651211  -0.0327591
   0.7934220   0.9715784   0.9431938  -0.8986983  -1.3971437   0.1256315
   0.2194926   0.1258328   0.0331228   0.2579420   0.0568430  -0.6671096
  -0.3715490   1.0092137  -0.9269432  -0.0678596   0.1640613  -0.0852495
   0.7090597  -0.6988372   0.3540554  -1.1891705   1.1086769  -0.5140293
  -0.0715844  -0.3843518   0.1050148   0.5013161  -1.3594608   1.1421916
   0.3210593  -0.8970831  -1.0629281  -0.2953002   0.1328392   0.1120785
   0.0520441  -0.0221052  -0.4307455  -0.5290014   1.4115548   0.8815632
  -0.2750655   0.1759566   0.1269756   0.1965816  -1.6597809   0.8813157
  -0.3238049  -0.3092264  -0.5995596  -0.1987065  -0.0284092   0.2053819
   0.0459027   0.9675343   0.2796781  -1.2724018   0.4238733  -0.0941484
   0.3517680   0.5463146  -0.2591425  -0.3151471  -0.1057269   0.8623597
   0.0667977  -0.7624586  -0.2957198  -0.0027308  -0.0872578  -0.2991931
  -0.0187440   0.3516235  -0.8840010   0.8872179   1.0627507   0.9784551
  -0.1766976   0.1516979  -0.3164646   0.0105314  -0.2233893   1.1770230
   1.0913028   0.5991291   0.0035636  -0.0447656   0.1801103   0.0087875
  -0.5818954   1.5791574  -0.2371341   0.4239433  -0.4606111   0.1699449
   0.1918216  -0.0875537   0.0415036  -1.6752797   0.8045112   0.3981623
  -0.4892586  -0.0198201   0.8859051   0.0490848  -0.3473012   0.0095709
   0.1525475   0.4248713  -0.5235054  -1.1577362  -0.3500523   0.4783494
   0.1225468   0.1476199   0.1099196  -0.5992346  -0.1577833   0.0252199
  -1.2619743   1.3028368  -0.0777808   0.1426173  -0.0174874  -0.1280946
   2.1146258   3.0296661  -1.3865720  -0.1438705  -1.0513949   0.7061256
   0.0403184   0.2151671  -0.0702190   0.2735408  -0.0857225  -0.2001795
  -1.5969941  -0.4392036  -0.2324658   0.2422294   0.0796999   0.0815991
   0.1528942  -0.2298544  -1.0817714   1.2496967  -0.1280876  -1.0937709
   0.3822422  -0.0131612   0.0983638   1.3019321  -0.2427364  -1.2729011
   1.3713843  -0.1303574  -1.0152056  -0.1863244  -0.1154438   0.0516040
  -0.9532439   0.1039532   0.3000689  -0.7887461   0.8772508   0.0094737
   0.2270962   0.0418880  -0.0581488  -0.9751789   0.7258191  -0.4517073
  -1.1055103   0.1223836   0.7365117   0.4652286  -0.0035862   0.0087277
  -0.3564674  -0.4332394  -0.5114159  -1.9583916  -1.1901773   0.4194895
   0.3210554   0.0084272  -0.3751183   0.2463313   0.7532512  -0.7713038
  -0.7048029  -1.8446390  -1.8738341  -0.1910170   0.5268118   0.0364047
  -0.3488644  -0.6639397  -0.2952845   0.1810706  -0.3113035   1.5524529
   0.2471790  -0.0095778  -0.0035685  -0.2080111   0.8461755   1.0396209
  -0.1076553  -0.1759091  -0.4337746   0.2546794  -0.2546702   0.1310705
  -0.9290609   0.9273824  -0.4733231   0.1436987   0.0447894   0.1531132
  -0.1560178   0.0144203   0.1368190  -0.2122664  -0.3986528  -1.2739127
  -0.0863854   0.5820690  -0.5205630  -0.3032904   0.2372000  -0.0732434
  -0.4138795   1.2308223  -0.0247640   0.7611303   0.3849222  -0.0702664
  -0.0845898   0.0484606  -0.3705789  -1.0611969   0.5494824   0.3076193
  -0.0066988   0.5879878  -1.0074572  -0.1277281  -0.1112072  -0.0552454
   0.5192807   1.5422883  -0.4206739   0.2062519  -1.1371409  -0.5135743
  -0.3924706   0.1050018   0.1265788   0.6276583   0.4497002   0.1769905
   1.4044331  -0.0823912  -0.3031771   0.4394333  -0.2529118  -0.1293948
  -0.3208842  -0.1832342  -0.4251370   0.7210802   0.2203564   0.1936324
  -0.1907563   0.0656989   0.2297434  -1.3473472   0.1121939  -0.7259492
  -0.1211951  -0.0823729   0.9668424  -0.0489452  -0.2640332  -0.1254234
  -0.2791196   1.1329315   0.2290432  -1.7674023  -1.0477603   0.2388534
  -0.1318270   0.0704499   0.0386084  -0.4973589   0.2120574   0.9965526
   0.9605719  -0.9688469  -1.4915575   0.0169434   0.0934567  -0.0908391
   1.6849321  -0.0940243  -0.7682288   0.6564681  -0.2031880  -0.1460625
  -0.0594581  -0.0085334   0.1675535  -0.3072906   0.1835285  -0.6749655
   0.5457229   0.3725757   0.2369796   0.2067856   0.0063356   0.4207726
  -0.1340757   0.7665454  -0.1266643  -0.5474941  -1.5554139   0.3059492
  -0.1431047  -0.0147299   0.1293039  -0.8597537   0.4684041  -1.3409553
  -1.4167784   0.5949765   0.0178256   0.1911917   0.1841525   0.0954165
   1.1349360  -0.4761653   1.0200761   0.1847764   1.4550752   0.3662544
  -0.0057581   0.2356283   0.2390146  -0.6843822  -0.9211618  -1.4101429
   1.2713320  -1.0953439   1.1656075   0.1847267  -0.0186144  -0.3699035
   0.5290306   0.1408646   1.1065646   2.5697389   0.1434242   0.3088047
  -0.1548271   0.1714602   0.0534193   0.8893462  -0.9500259   0.6040806
  -0.1458041   0.7355623   0.0023337   0.0466431  -0.1282149  -0.1121057
   0.1224121  -0.5544167   0.2343713  -0.4996454   0.8445947   0.7028466
  -0.0821549  -0.1831861  -0.2720563   1.1731262  -0.3828212  -0.0151892
   0.6406044   1.2569588  -0.0484038  -0.2423695   0.0890203   0.0348078
  -0.2846530  -0.5242709   0.0152075  -0.2714037  -0.4930968   0.8701742
   0.1865155  -0.0121688   0.1045938  -1.0641430  -1.0092308   0.2493279
   0.2894937  -0.0822594   0.5802475   0.3321334   0.0335430  -0.1945511
   0.6141884   0.9111880   0.0262868   0.3629459  -0.3789239  -0.5386436
   0.0811072  -0.0357478   0.2001986  -0.5568472  -0.3226448   0.5362227
  -0.2154667   1.0512659  -1.4394574  -0.0162276  -0.2191913  -0.0838974
  -2.4902083   0.5305362   1.8186960   0.0374478  -0.4030950   0.4348016
  -0.2079245  -0.4685380   0.0318680   0.7933664   0.9269982  -0.2862868
  -0.2988513  -0.4198375  -0.1186750  -0.1422818  -0.2003795  -0.3380253
   0.3154055   1.0127535  -1.1771915   0.1116655   0.1375996   0.0832991
   0.0868935  -0.0733965  -0.3022172   0.1186951   1.2996838  -1.4482294
  -0.9368426  -0.3886189  -0.7677210  -0.4552721   0.0032030  -0.2139024
  -0.0331865   0.0874524  -0.0159619  -0.6944621  -0.0987169   0.2009594
   0.2047209  -0.1716389   0.0661537   1.4311240   0.5285388   0.3838273
   1.0745399   0.3829669  -0.3022749  -0.2814830  -0.2097049  -0.1929515
  -0.2044420   0.1512954  -1.8175014  -0.2768139  -1.0909330   0.7716345
   0.0597139   0.1093254  -0.0573175   0.0819670   0.6611785   1.3203792
   0.0350509  -0.0179443   0.6900525   0.1681456   0.0718884   0.0686479
  -0.1864178   0.7347734   0.6076042  -0.5336786   0.0665113  -0.1447168
   0.0290793  -0.0739055  -0.2174705   0.2549879  -0.6463791   0.5953257
   0.3722568  -1.4328265  -0.6252635   0.0897937   0.0433967  -0.1965260
  -0.7962228   0.0505252  -0.6735081  -0.4484076  -0.2322906  -0.0063997
   0.0244136   0.0786545   0.1190356   0.2464777  -0.9301608   0.5527582
  -0.1702557  -0.7425839  -1.2073210  -0.0349815  -0.1879077   0.0727028
   0.4793689   0.5594147   0.6148215   0.8364184  -0.5674654   0.9381201
  -0.0100206  -0.1063025  -0.2745329   0.2526137  -0.0569271  -0.2127436
   1.4292656  -1.0756565   1.0639417   0.3683784   0.1183202  -0.0496062
   0.6825541   0.7131917  -0.3981861  -0.3759136  -0.0590617   1.3123127
  -0.2413300   0.0879025   0.0065742   2.5550274   1.2522777  -0.5360525
   0.8423645   0.1443935  -0.2538267   0.4271376  -0.2822642  -0.0309831
  -0.2025892   1.0434557  -0.5010790   0.0348863   1.1108527   0.9361466
   0.1488117  -0.0656776  -0.1372192   0.3321568   1.1114534  -1.2690843
   0.1633107   0.9382646  -0.6034567   0.0919256  -0.1892519  -0.0439998
  -1.0804513  -1.1625671   1.0222017   0.9405196   0.8557315  -0.7205277
  -0.0602438  -0.0108357  -0.0547634  -0.8087704   0.6550986  -0.6671395
  -0.6672475   0.7517959   0.0134144  -0.0161725  -0.0106728  -0.0995621
   0.6453335  -0.2247256   0.8829972  -0.1429098  -0.1091518   0.0429986
   0.1252746   0.2694616   0.0426817  -0.6923631  -0.1868711   0.2727650
   1.3453537  -1.1938937   1.3651292  -0.0051460   0.2054011  -0.1861806
   0.0660013   0.4174640  -0.4445301   0.4210580  -0.4571611   0.6913090
   0.0464321   0.1203503  -0.1487118   0.0481489  -0.3010353   0.8034733
   0.0829145   0.8905358  -1.1634208   0.4757199  -0.0446145   0.2806889
  -0.0103556  -1.5919330  -1.5083600  -0.1783006   0.5895329   0.6834960
   0.2815176  -0.1921102  -0.0854845   0.8044279  -0.4547625   0.7637012
  -1.4550685  -0.1892677   0.3381843  -0.0786464  -0.2553327  -0.2603673
   0.4247981   0.1768027  -0.3493069  -1.7490131   0.9780975   1.5793698
   0.2102686   0.0321229   0.0314385  -0.3459744   0.8262688  -0.2923949
   1.4750622  -1.2770456  -0.8842234   0.0476610  -0.1279820   0.2064677
  -0.6473758  -0.0723668  -0.7898663  -0.1496550   0.7643162   0.7305705
  -0.1350950  -0.0560357   0.3161968   0.2976712  -0.1928743  -0.9325932
  -0.3140539   0.3735541   1.4614403  -0.1068266  -0.1274929   0.3709265
  -0.0162435  -0.1869428  -0.1989929   0.9843368  -0.2761140   0.0116021
  -0.2145742  -0.2307068   0.4321509   1.4373264   0.8825655  -0.5278775
  -0.1030190   0.0587452  -0.2395717  -0.0326691   0.0134685  -0.0164144
  -0.5916819   0.6109145  -0.1123487  -0.2194726   0.3357790  -0.1967962
   0.1126825   0.0609316   0.2014700   0.9030570   0.1771661  -0.0325887
  -0.1979549   0.7242537   0.1970196   0.0248046   0.2740457   0.1017579
   0.6863443   1.1056194  -1.0463735   1.2980839   0.2431369   0.0764416
  -0.2256140  -0.1705476   0.1788940  -2.4424943   0.7930905   0.1755158
   0.0914530   0.4329733  -0.3339770   0.1300071  -0.0104679   0.0907427
  -0.6355383  -0.8691933  -0.8220216  -0.3983078  -0.2599939  -1.1591690
   0.1178504  -0.1288769   0.1973052   0.0115362  -0.4244370  -0.6508411
   0.4300494  -0.5524559  -0.8135561  -0.1118070   0.0794262  -0.1233155
   0.4191366   1.2633834   0.3540696  -0.1753504   0.4164058   0.3510328
   0.1101854   0.0347742   0.2118917   0.8974673   0.0069427  -0.4487444
  -1.2398365   0.4105297  -1.3370494  -0.2379129   0.0158108  -0.5117141
  -0.4792054  -0.1222692   0.9446804   0.0087724   0.9615334  -1.0119560
  -0.3986904   0.0248558   0.0910998  -1.6356152  -0.4625579  -0.1848191
  -0.4565353  -0.9440795   0.7994287   0.2426505   0.7198731   0.2436410
  -0.4616814  -0.3288780  -0.0145511   0.1762442   0.2155085   1.2559684
   0.0400849  -0.2464295   0.2943319   0.2103593  -0.0434732  -0.0464284
   1.4476063   0.1975642   0.9147172  -0.0229619   0.1676079   0.0189642
   0.5630693   1.2991096   0.7845409   0.6706608   0.3493975   1.0947495
   0.0698489  -0.0333141  -0.2600800  -0.7293888  -1.1471924   0.5652672
   0.8598676   0.4885241   0.6524851   0.0023750   0.0148171  -0.2115216
   0.0335489  -0.9009153  -0.3094605   1.3888954  -0.3647428   0.1523352
   0.1257924   0.2408765   0.0005198  -0.0650053  -1.5251850   1.8221899
   0.3393075  -0.5164194   0.3657456   0.1375768  -0.1393180  -0.1687283
   0.7998447  -0.7510541   0.0135034  -0.1092321   1.4730540   1.0963866
  -0.0555981  -0.2953071  -0.0395571  -0.5806921  -1.0257341  -0.0833945
  -1.5350693  -0.7026104   0.4155435  -0.2954617  -0.3817190  -0.0001549
  -1.5721898  -1.0606664  -1.4658168   0.3181266  -1.7881436   0.8268660
   0.3744511  -0.2187823  -0.2515958  -2.1167449   0.3277664  -0.3331988
  -1.8253369  -1.1688016  -0.0910102   0.0141800   0.4381032   0.0303222
   0.3241261  -1.1564955  -1.0066173   0.2528113   0.0224466   1.7043362
  -0.1015423   0.1909544  -0.2030564  -0.2407532  -0.2778783   0.1831109
  -0.3575356  -0.1460195  -0.5071275  -0.2425970   0.1027219   0.0495191
  -0.2953186   1.2897906  -2.4488479   1.3053766  -0.0867131  -0.4170085
   0.0072557   0.0933995  -0.2605633   0.2951493  -0.2258814  -1.0851388
  -1.0667836  -1.3715279  -0.1575381  -0.1047110  -0.2695983   0.0132580
   0.7009655   1.1741699   1.1141915  -1.0995603  -0.7944433   0.8400054
  -0.0121375  -0.0807387   0.2239755  -1.0319012  -0.9201253   0.3144471
  -0.0040557   0.2191965  -0.3347127  -0.3110840   0.0510189   0.0871349
  -1.5366567   0.5893395   0.5263470   0.8488709  -0.2534911   0.8466648
   0.0085608   0.1579753  -0.4950089   1.7303016  -0.1143329   0.1058972
  -0.3239353   0.0680377   0.1689319  -0.0584570  -0.0978397  -0.0162992
   0.2391877  -0.9687128  -0.7198730   1.4558353   0.3801985   1.6497342
  -0.0259545   0.1807163   0.3460240   0.6108279   1.7481113  -0.2277913
  -0.7569664  -0.1667645   0.1683541  -0.1073113   0.0641754  -0.0341079
   0.3722967   0.0756404   0.7246746   0.0008812   0.2603101  -1.1955178
  -0.2285216   0.2508843  -0.3791868   1.0455286   1.3083906   0.0343477
   0.7631615   0.3302734  -0.2864025  -0.0889208  -0.1044188  -0.2625937
  -0.4168250  -0.6659803  -0.0497437  -0.5976771   0.2951735  -1.1975961
  -0.2911962   0.2186075   0.0523069  -0.0671915   0.3262159  -0.3050079
   0.9361641  -0.2723823  -0.0055553   0.2498467  -0.1017785  -0.2661859
   0.0803420  -1.3747319   0.1268168   0.0797968  -0.1903383  -0.7590614
  -0.1754244   0.2198931   0.0136070   0.5793856   0.0945065  -1.0629124
   0.3675637  -0.4629095   0.9457611   0.1341158   0.0705315   0.0666571
  -0.8888778   0.0963718  -0.1414104  -1.5765632  -0.1071112  -0.3838676
   0.2845663  -0.0748548   0.0205273  -0.1822313   0.7051481  -0.6041487
   0.0453582  -1.3704628   0.6388497   0.0787910  -0.2991656  -0.2007001
   0.4105816   0.0399284   0.7127049   1.3844178  -0.2210997   0.3182259
  -0.1809161  -0.0114562  -0.0442256  -0.7375051   1.0905984  -0.7232140
  -0.0432745   0.2813049  -0.2776291  -0.0825141   0.0488443  -0.0490371
  -0.2965182  -0.0353808   0.7999577   0.9812415   0.3507075   0.6220706
  -0.0654708   0.0890450  -0.1314656  -0.3009403   0.2558411   0.1664675
   0.3363155  -1.1512533  -0.3199091  -0.1644436  -0.1848664   0.0977447
   0.2049490  -0.0277298   0.5043631  -0.4184259  -0.8601221  -0.1909276
  -0.1824681   0.1086413  -0.1105452   1.4636726   0.0031076   0.7358282
  -0.8000713  -0.2244529   0.0889493  -0.0710865  -0.2110863   0.0590607
  -0.0375453  -0.3387223  -0.5609415   0.1047202  -1.4941559  -0.5073811
  -0.0022337  -0.1040269   0.2832816   0.7972161  -0.6317232   0.0474146
   0.5577150   0.5513413  -0.1749551   0.0712596   0.2561330  -0.0532660
   0.1146719  -0.1512491  -0.0009690  -0.2951069   0.5896254  -0.3834919
  -0.4066984  -0.0216245   0.1015356   1.6331635   0.5692295  -0.1624143
  -0.0106585   0.7262362   1.1629589  -0.0339510  -0.1262801  -0.0416751
  -0.0643642   0.5572109  -0.7718452   0.2330720  -1.3884950   0.0421375
  -0.2071808   0.0290840  -0.3173736  -0.2601027  -0.1200692  -1.2283789
   1.7667770   0.0420032   1.6516163  -0.2874293   0.0175189  -0.1243065
  -0.5513344   0.8643775  -0.0432576   0.8985365  -1.0253752   0.2293665
   0.1844238  -0.0441269   0.2712656   0.2415322   1.7664113  -0.2520752
   1.3036934   0.1299138  -0.5898931   0.2302995   0.1670808   0.1691986
  -0.2165002   0.1111136  -0.7613391  -0.4972252  -0.7977069  -0.0455241
  -0.0642810  -0.2077352  -0.0547258  -0.8889801  -0.1131275  -0.9441880
   0.0883899  -0.5929826  -1.3308139  -0.4435842  -0.0163896  -0.0201652
   0.8462932   0.3168189   0.3654996   0.6126476   0.1103936  -0.8249184
  -0.4455765  -0.1947820   0.1616478  -1.0320042  -0.7096624   1.0530761
  -1.1528706  -0.3654442  -0.5004627  -0.1675673   0.2290663  -0.1443306
  -0.7913822   0.6363023  -0.2989835   0.5117913  -1.1219970   0.4148102
   0.1569392   0.1410999   0.0195676  -0.7059209   1.7754248  -0.8447763
   0.7652876  -0.2401427  -0.3019214   0.1140764   0.1172399  -0.1868144
   0.6435058   0.7165519   0.3559620  -0.0233038   0.7838106   0.3201767
   0.0893147  -0.0664560  -0.2906055  -1.2310135  -1.1073057   0.1411836
   1.1188120   0.2826709   0.8357168   0.1631611   0.0190760  -0.1221739
   0.1886510  -0.9751257  -1.5680988   1.4197587   0.4337749   0.3216878
  -0.3401795  -0.1423604   0.0301667   0.2962180  -0.3640056   0.0956635
  -0.0993687   0.1338979  -0.3927539   0.1214533   0.1886375  -0.1346816
   0.3083684   0.1297819   0.6915747  -1.1547462   0.0220176  -0.1977314
   0.0334905   0.4233331  -0.2292185  -0.5614420  -0.3596411  -0.8322601
  -0.1413847   0.0698357   0.6324745  -0.2734253  -0.0741448   0.3905785
   0.9155455   0.3513879   0.6141416  -0.7071088  -0.5605584  -0.5240397
  -0.2420551   0.2424385   0.1754263   0.0270145  -0.7997931   0.2158852
   0.0475714  -0.4583218   2.0285042   0.0401536   0.0182065   0.0151645
   0.4471952   0.3807755  -0.6653631   0.0590722  -0.4540684  -0.4484623
  -0.1203316   0.2695250   0.4212692   0.0484386  -0.4904965   0.1279392
  -0.0310553  -1.5493043  -0.1732872  -0.1680810  -0.4564452   0.1672539
   0.5439141   0.1143731   0.0517992   1.8743170  -0.0312907   0.9539106
   0.0504844  -0.0681180   0.0799968   0.0877802   1.6899973   1.0207011
   0.3839567   0.2340654  -0.3071028  -0.2121651  -0.3581950   0.3615182
  -1.1970149   0.0901785  -1.1903561   0.1116240   0.0562055  -1.4763455
   0.0193969  -0.6144260   0.1984741  -1.1020021   0.2433983   0.0716078
  -0.6978117   0.0823937  -0.2948753   0.4072160  -0.2054986   0.2459008
   1.1274096   0.1781718  -0.0289359   0.5775883  -1.2698038  -0.1130637
  -0.2052257  -0.0384577  -0.1319976  -0.3764083  -0.6813119   1.0150510
  -0.0124470   0.2311984  -1.4666061   0.3086600   0.3215342  -0.1758605
  -0.1599740   0.1774624  -0.6500587  -0.1676846  -0.9514379   0.2776888
  -0.1752041  -0.0095094   0.1314207  -0.8273497  -0.4413281   0.5561530
   1.3069591  -0.6205721  -0.4382244   0.1348012  -0.0033481   0.2577437
   0.3937021   0.7570710  -1.0153272  -0.1076240  -0.4153938   0.4354827
   0.3067719  -0.1326228   0.2839766   0.7987465  -0.3217450   0.4994930
   1.1008072   1.6744145  -0.5545908   0.0446730   0.1449833   0.2503294
  -0.2350404   0.6084343  -1.8544221   0.5978041  -1.1144588   0.4844380
   0.1551406  -0.1820279   0.0586935   0.0545897  -0.4774257  -0.3119917
   0.5469867  -1.3261125   0.9121274  -0.0985972  -0.0856936   0.1080399
   0.0734312  -1.4702180   0.4346452   2.2145908   0.3320261  -0.0508735
   0.1281881   0.1705920  -0.2329875  -0.0197283  -0.2368897  -1.5993889
  -0.1664855   0.0968534  -1.0231599   0.1271643  -0.0944667  -0.0672423
   0.3102942   0.5486377   0.6435047   0.0774990   0.1053218  -1.1416695
  -0.1835361  -0.1021636   0.0593840  -0.1775215   0.4539684   0.1468726
   1.5846044  -0.5502579  -0.5997942  -0.0273007   0.0857683  -0.1971134
   0.3058261  -1.1957907  -1.4049900  -0.0577683   0.8616699   0.2497516
  -0.0582992  -0.2274466  -0.0729179   0.1577077   1.3255185   0.0323934
  -0.0761204  -0.6289599   0.2849498  -0.2507517   0.0352186  -0.1756085
  -1.9731681  -1.0599422  -0.3566399  -1.6643391  -1.0711952  -0.1430726
  -0.2678823   0.0776384  -0.2181297   0.4650102  -1.3045951  -1.0749216
   0.3965697  -1.0373560  -0.5096462   0.0488918  -0.5774719  -0.3116938
   0.9315915  -1.1863654   0.3006285  -0.6325540  -0.4611922  -0.1087069
   0.1054552  -0.1274144   0.0618044  -0.2538095   1.4690115   0.2684853
  -0.2381191  -0.0234972  -0.8834602   0.0624045   0.0903571  -0.1209773
  -0.9165689   0.0835155   0.4853492  -0.4498182  -0.2566863  -1.1906044
   0.0492630   0.1637631  -0.1832751  -0.4561383   0.1293997   0.4782151
  -0.4486159   0.4875385  -1.0023094  -0.2141215   0.1998090  -0.3340700
  -0.2410279   0.3889802   0.7813978   0.3609366   0.2906522   0.8182835
  -0.1160719   0.0543348   0.1090549  -0.2058084   0.4207195  -0.4069523
   1.8104058   1.5528842   0.5829608  -0.2181520   0.1129369  -0.2127172
   0.4851052   0.4614977  -0.0853136  -0.9242522  -0.1680180  -0.9569076
  -0.3249808  -0.0301494   0.0999758  -0.5814074   0.2836069   0.1190324
   1.3473413   0.0436646   0.5149754   0.4732461  -0.2102624  -0.0343027
   0.9233948   0.9051172   0.5655896   0.4178148  -1.1445457   1.5905759
  -0.2332151  -0.1648207   0.0570437   1.8431258   1.0156688  -0.0014907
   0.2770584  -0.4459688  -0.3833227  -0.1399235  -0.0770990  -0.1513014
  -1.0238340  -0.0806698  -0.6971847   0.2333722   0.4100161   0.8760421
   0.0945271   0.0534562  -0.2884774  -0.3411121   0.5514289  -0.2655725
   0.6981477   1.4194980  -0.9226171   0.0322442  -0.0884094  -0.0574317
   0.2565951  -0.5113732  -0.7969217   0.2558089  -0.5072502  -0.8859795
   0.4994117  -0.1819172   0.1344663   1.3678344   0.3889435   1.0314464
  -0.2182658  -1.8226965  -0.2154458  -0.0198752  -0.1565736   0.0674183
   1.0032364   0.1114034  -0.3268814   0.9761658  -0.3008590  -0.1176649
  -0.4499038  -0.0299913   0.3676872   1.1530135  -0.4685109   0.4704938
   0.3499569   0.4151794  -0.2904989  -0.1694543   0.4495161  -0.2991663
   0.1004832  -0.0770204   0.4743151   0.7653165  -0.0269373   1.1102128
  -0.1104349  -0.1001691  -0.2496019  -0.4023911  -1.4274337   0.2174565
  -0.9330256   0.3623214  -0.8273616  -0.4931961  -0.0059161   0.2884151
  -0.5854380   0.6509675  -0.7470906   1.0627888  -0.9962644   1.3813056
   0.2479245   0.1135825  -0.3066048  -0.2940576   0.6700050   0.1005405
  -0.0397286  -0.3066650  -1.0147454  -0.0541448  -0.2274551  -0.0265595
  -0.5402375  -1.0285640   1.7305634   1.0358800   0.5618047   0.5833901
   0.0563725   0.3211228  -0.2131221   0.6616214  -0.3165958   0.2848126
   1.1824814  -0.5566260   1.5529750   0.1078709   0.2414579  -0.1766437
   0.3482868   0.2967417  -1.2497758  -0.9878881  -0.7744219   1.4288210
  -0.0730465  -0.0224121   0.3780826   1.2117385  -1.9413006  -0.5372381
   0.5214032   0.0876671   0.5200220   0.1158002   0.1034800  -0.1536139
   0.4924333   0.3934467  -0.1983009   0.5001140   0.3240945   0.7819813
   0.1086249   0.1579360  -0.2841973  -0.1523168   0.1343605  -1.2810486
   0.5233602  -1.1771816   1.4598230   0.1222410   0.2483888   0.0896898
   0.7307547   0.9944492   0.2852308   0.1761541  -0.9032637  -0.2758335
   0.1960716   0.1008501   0.0967708  -0.9148925   1.4472781  -0.0153969
   0.1078031  -0.5674860  -0.4158342  -0.0432001   0.0156083   0.0389892
   1.0530423  -0.0408725   0.4583933   0.7902154  -0.5861248  -1.4941482
   0.1546450  -0.0945811   0.1266214  -0.1815997  -1.0654205   0.5227547
  -0.1540820   0.2117190   0.5595838  -0.0070856   0.1076681  -0.1024981
  -0.5590578   0.6684774   0.2198151  -0.0175061  -0.0312397   0.0312229
  -0.0078638  -0.3364559   0.3026159  -0.5705498   0.0452967   0.4015297
   0.6623157  -1.0342668   0.5686563   0.1163401  -0.2277144  -0.2461691
   0.2168425  -0.8125782   1.0110550   1.3397523  -0.1324138  -0.0274357
   0.0433118   0.0716164  -0.0512100   0.9686160   0.2187560   0.1982284
  -1.0550125   0.7026561   0.3772597   0.4373418  -0.2594355  -0.1464265
   0.2786336  -0.0133350  -1.2213633  -0.7014227   1.0572777  -0.9213782
   0.4019869   0.2845423   0.1340516   1.3769072  -0.6427747   0.3553484
  -1.0207560   1.7894266  -0.1000116  -0.0307464  -0.5722390  -0.0382653
   0.3309332   0.1282315  -0.2051183   0.1966833  -0.1399995   0.2208394
   0.1938064   0.4690104  -0.3311794   0.7780779   0.6101589   0.9558650
  -0.2400625   0.2518467  -0.1454001   0.0175190  -0.3185616   0.0618943
   0.0023285   0.9190195   0.0236979  -0.7947130   0.1780355   0.8369960
  -0.1292958  -0.1381196   0.0695665  -1.2116672   0.5388901  -1.6086637
   1.1921340   1.6372677   0.0155547   0.0041624  -0.0030977   0.0989974
   1.0612060   0.3861905   1.1372240  -2.7354031  -0.5177649  -0.5390286
  -0.1377615  -0.1487526  -0.1420813  -0.3075358   0.2397639   0.1041419
  -1.1490915   0.5477986  -0.0924620   0.1630912   0.1067420  -0.2465967
   0.4040407   0.3620814   1.0980157  -0.6903160  -0.2943607   0.9866447
   0.1322789   0.1430305   0.1626263   0.0257720   1.1686219   1.6536937
   0.2701455  -0.6183992   0.3280022  -0.0584030  -0.1220824   0.2611026
  -0.4348494   0.2009626  -0.2414778   0.7380921   0.8321139   0.1968112
  -0.0116165   0.5151912   0.0188214   1.1123983   0.1795458   0.1160485
   0.9317776  -0.1954531   0.0457616   0.1688980  -0.1350104   0.2215806
   0.9868427   0.2652804   1.2403194   1.6096016  -1.2030109   0.8972137
   0.2847919   0.2784036   0.0562058   1.1397457   0.3574639  -0.0554137
  -0.3297348   0.7804978  -0.5657725  -0.2933065   0.3888055   0.2270113
  -0.9265916   0.9590006   0.3782079   1.4132437   0.6652753  -0.2355723
   0.2876496  -0.1329178  -0.0642005   0.5393900  -0.9530151   0.7132467
  -0.9798863  -0.4308685  -1.9370950  -0.0158388  -0.1158185  -0.2000112
  -1.4219324  -0.7666658   1.3808872   1.4800019   0.1079782   0.3787978
   0.4105799   0.0123807   0.0289845   0.2497774  -0.7210183  -0.0003270
  -0.8339876   0.1347640  -0.2858708   0.4395901  -0.2076057  -0.2598034
  -0.6106577  -0.3488645  -1.4201739  -0.7852808  -0.6876092  -1.8077468
  -0.3261116  -0.0631323   0.0847928  -0.5082158   0.1952326  -0.4956552
   0.0808778   0.2823963   0.4913948  -0.1354375  -0.0345633  -0.2017426
  -0.6129012   0.3881020  -0.6928720   1.6361025   0.2922201   0.8822100
  -0.5066307   0.2334799  -0.1802861   0.1614050  -1.0551058   0.0428528
  -0.3683595  -0.5596854  -1.7948136  -0.0551777  -0.1892836   0.1359591
  -0.4403183   0.0871893   0.4557378  -0.2138799   1.5505515  -0.4829557
   0.2202547   0.1774622  -0.2945539   0.3110826  -0.4262736  -1.1086603
  -0.3582647  -0.9516951   0.1219924   0.1867891   0.0589146   0.0739256
  -0.1579330  -1.2654245   0.2218231   1.2380480  -0.0389591  -0.5143974
  -0.1208103   0.0436141  -0.0564374  -0.3991622  -0.6477916   0.0762977
  -0.4268296  -0.6142713  -0.2434151  -0.0909088  -0.1796933  -0.1855793
  -0.0266367   0.1564812  -0.4184300  -0.1875610  -0.4673819  -0.6547316
   0.0008209  -0.0910216   0.0901933  -0.1913155  -0.1002824  -0.1867123
  -1.5422629  -0.4296945   1.3353576   0.0558287  -0.0976333   0.2725126
   0.5824319   0.5679878   0.8426207  -0.2771728   0.0332705  -0.2981587
  -0.2261534  -0.0638712  -0.1728196  -1.2806594  -0.7394832   1.4115105
   0.4757869   0.2420286  -0.9326945  -0.2033257   0.0302719   0.0802568
   0.0336341   0.9838741   1.1858903   0.0058795   0.1341424  -0.0434311
   0.1840274   0.1985390  -0.0827644   0.0748360   0.8028713  -0.2343841
  -1.0726868   0.5667959   0.7442421  -0.1972528   0.3290963  -0.2965262
  -0.0895757  -0.9199850   0.5545562   0.6150074   0.4458574   0.4323239
   0.0402190  -0.0791819  -0.1013807   1.2920276   0.2018724  -0.1222110
  -0.0010494  -0.9254267  -0.0491598  -0.3764264  -0.0129194  -0.2807253
   1.1873742   0.4782164  -1.4375477   0.6525813   0.8482865  -0.5305615
  -0.0441798   0.3109931  -0.0976566   0.9589303   1.0592835  -0.8457751
   0.0818684  -0.4666765  -0.0649424  -0.0435268   0.1849138  -0.0412510
  -0.5900305  -1.6667680  -0.1507415  -0.7205513   0.2688122  -0.2477379
  -0.0437857   0.1831644   0.1842635   1.2587726   0.2010208  -0.0715463
   0.7301233   0.1781816  -0.5657880   0.2414365   0.0515280  -0.1513194
   0.4241286  -0.0647514   0.0830531  -1.5374951  -0.2764344   0.5350956
  -0.0002185  -0.1853777  -0.4241652   0.2709431   0.1114339   0.1878561
  -0.5742034   0.2337210   0.2084362   0.0159180  -0.1987743  -0.0158080
   0.0207533   0.2863053  -0.9498286   1.1021848   0.6405405   2.1912799
  -0.3473442   0.3324465  -0.1480009  -1.0521681   0.3577607   0.8834583
  -1.8690847  -1.0478216  -0.2290722  -0.2084126   0.0504285   0.2001395
   0.9809859  -0.7199249   0.9291737  -0.7304763   1.2724007  -0.7210976
  -0.0210857   0.0024469  -0.0718927   0.7225064  -0.5689541   0.0465946
  -1.4668944   1.0440146   0.3736409   0.1603594  -0.4118586   0.2895084
   0.5697221  -0.3521252  -0.1086214   1.1823664   1.1909205   1.4960484
  -0.1923164   0.0225025  -0.0882244   0.1966448   0.2353969  -1.2594649
   0.5670166   0.7577761  -1.4724736   0.2634428  -0.2617319   0.2610154
   0.8140618  -0.0437106  -0.3072912  -0.7803513  -0.4222861   2.0834202
  -0.0531710   0.0215537   0.1826054  -0.4914567  -0.3257859   0.9637746
   0.7243636  -1.3146424   0.4766937  -0.0785938   0.3751436  -0.0448195
  -1.0252913  -0.6068719   0.6047955  -0.0804972   1.0225660   1.1243948
   0.0417019  -0.0744618  -0.3592871   0.1931191   1.0651040  -1.1218357
  -0.0013170   0.4828280   0.8731091  -0.4082504   0.2663541   0.0222371
  -0.1977277  -0.0896364  -0.2248494  -0.6772351   0.3733192  -0.3948811
  -0.1952961  -0.0199445   0.2223055  -0.8131238  -0.1385443  -0.9181028
  -0.3135676  -0.5318862  -0.0839548   0.1015254  -0.0485916   0.1065400
  -0.8484615  -1.1776405  -0.8868889   1.4394482   0.4393915  -0.0509629
   0.4578230   0.2312275  -0.1502691   0.6560440   0.5387670   0.5794992
  -0.7045710  -0.5513007  -0.9776279   0.2625063   0.3012192  -0.1295068
  -0.4684070  -0.5538048  -0.1161092   0.0390069  -0.3372224  -0.8821805
   0.1367197  -0.0115053  -0.3671873  -1.2988057  -0.0301776   0.8247254
  -1.0419809  -0.2693162   0.8859925  -0.0317715   0.2788022   0.3982685
   1.0148921   1.1227864  -0.7595791   0.9236164  -0.0800289   0.0275601
  -0.0009465  -0.0465782  -0.1339590  -0.1653867   0.2309993   0.4259934
  -0.6011674  -0.2478120   0.7274418   0.2931878   0.1048954   0.2295380
   0.9644164  -0.4255199  -0.1253625   1.0328479  -0.7853009  -0.6046857
  -0.1315733   0.0829139   0.0815420  -0.1011434  -0.4503399  -0.4846394
   0.5073111   0.4496018  -0.3334505   0.0971927  -0.1141082  -0.7364289
  -0.4253242   0.7688489  -0.0683179   0.3582145  -0.2314357  -0.0606127
  -0.3190988   0.0661335   0.1055048  -0.0758185  -0.7527804  -1.0786616
  -0.1041786  -0.0251668   0.9306311   0.0603449  -0.2645809   0.0041849
   0.6635885   1.1772441   0.8722855   0.4167042   0.2610698  -1.1634464
   0.2940458   0.0803828  -0.1492032  -0.2141559  -0.6814184   0.9827373
   0.2385153  -0.9968821  -0.8499144   0.1248416  -0.0032891  -0.0300716
  -0.7266596   0.9151645   0.5072122  -1.0211557   0.5813706  -0.3241936
  -0.0832361   0.2062857  -0.0415901   0.1005935   0.6601862   0.1950796
   0.8490816  -0.1201549   0.2627115   0.2228851   0.1061870  -0.2271787
  -0.2470088   1.3291471   0.5453488  -0.5145382   1.4792752   0.0034946
   0.0634140   0.4269524  -0.1550044  -0.7518274  -1.0580337   0.7344446
  -0.3175419  -0.5564599  -0.0123549   0.0069142   0.1893712  -0.0121570
   0.8186711   0.1109930  -0.5890025  -1.4145967   0.5969255   1.0299304
  -0.0098710   0.1587253  -0.0638260  -0.7134933   2.5491725  -0.2162656
   0.6287774  -0.1724036  -0.8275900   0.3629650  -0.1135696  -0.0871653
  -0.2869999   0.1305626   0.0120228   0.0638490   0.1207352  -1.0318171
  -0.2789932  -0.0948348   0.0504272   0.1334266   0.4995464   1.2428118
   0.2440254  -0.7150953   0.6045276   0.2119340   0.0155175  -0.2551002
   0.0579925   0.5621141   0.2640820  -0.3227294  -1.2104305  -1.3055092
  -0.2431792  -0.2327256  -0.1061776   0.2135687   0.0330419   1.0012709
  -0.1997341   0.0086459  -0.5552452   0.2093322   0.3702166   0.0460750
   0.0899997  -0.2278536   0.6305756  -0.3050140   0.6236175   0.4548236
   0.2880812  -0.0373075   0.1498155  -0.3420195  -0.1647613   0.5176727
  -1.0214886  -0.7093850  -0.3612842   0.2571007  -0.0748585  -0.0084725
   1.0033560   1.0909424  -0.9381619   0.0054901  -1.6826308  -1.1417280
  -0.0441195  -0.0552982   0.1537287  -0.1136200  -1.0226592  -0.9788676
   1.0836677  -0.9104396  -0.6613038  -0.2342033   0.0021306   0.0277316
  -0.3660166   0.4325270  -1.1102080  -0.2514612   0.2351006   0.4204158
  -0.0983263  -0.1066590  -0.1724375   0.2602254  -0.0997415   0.5519815
   1.0581974   0.2773463   0.3407081  -0.0609712   0.0314397   0.1149434
   0.4600387   1.0455643  -0.3649495  -1.3083768  -0.0309087   0.0057789
  -0.0695545   0.2404887  -0.0142194   0.9093882  -1.6360360  -0.1345153
   0.9279077   0.6039224  -2.2158142   0.2407418   0.2381608   0.1035429
   0.2619603   0.3256599  -0.4454242   0.5788052   0.6124421   0.4197318
   0.1911057  -0.0729056   0.0787918   0.7442777   1.0897430  -1.7099847
  -1.6844160  -0.2162828   0.7654906  -0.1024113  -0.2208875   0.0975518
   0.3007130   0.8816429  -0.7550015   1.4461488  -0.0737896   1.0877453
   0.1720051  -0.1361831  -0.4510768  -0.8989718   1.0118876  -0.1861765
   0.0359397  -0.5296407   1.0784378   0.0500759  -0.0231471   0.3199531
  -0.5035553  -0.4741244   0.5628637   0.0217815  -0.7959977  -0.1756729
   0.0902635   0.1754641   0.2253417   0.2785854  -0.1472264  -0.6347061
  -1.0154378   0.3209198  -1.4876041   0.3411715   0.1862566  -0.5727945
   0.0264925   0.1961894  -0.1120628  -0.6495142   0.5276299   2.3930671
   0.0357555  -0.1947025  -0.0961622  -0.0804166   1.2428572   0.1281484
   0.2462825   0.1651795   0.3894895  -0.3211148  -0.1025114   0.1655366
   0.7641569   0.5514448   0.6940427   0.3759389   0.6792188   0.6499346
   0.2903166  -0.2607424  -0.1815090  -0.0476791   0.0757016  -0.4231695
  -1.4782141   0.9748783  -0.6197182   0.2589546   0.2361219   0.0447160
  -0.8552234  -0.0350109   0.0096169  -0.3059890   0.0064428  -1.9544197
   0.3933245   0.0654167  -0.2469602   0.7212200   0.7182234   0.2159991
  -0.0200992  -0.5891672  -0.7450327  -0.3748817   0.1881691   0.3146884
  -0.7447739  -0.5342619  -0.8734217   0.4825678  -1.4169139   1.1311194
  -0.4321445   0.0679219   0.3419676  -1.0421840  -1.1956917   0.0815579
  -0.8524963  -0.3183080  -0.7641831   0.1819126  -0.0311933  -0.1083392
   0.2683343   0.0274553  -0.3288268  -0.5774226  -0.1057652   1.3606348
   0.4884716   0.0251602   0.3193998  -0.1044865   0.0129286   0.6341553
   0.8808314  -0.4704809   0.1444015  -0.4530768  -0.4027366   0.4030784
   0.0853918   1.4515544   0.2379953   1.3176902   0.0296152   0.3623543
   0.3634179  -0.0796650  -0.4053774   0.7217239  -0.8899710  -0.6049774
   0.9604530  -0.4727949  -0.3246536   0.2943454   0.3231372  -0.0697138
  -0.2359284  -0.0690860   1.6106628   0.9741451  -0.6814362  -0.7292868
   0.2416048   0.0696565   0.0863790  -0.3732809   0.7504540   0.2849612
   0.1003308   1.1889722   0.8345190  -0.0917950  -0.1647569   0.0288400
   0.2816563  -0.6793360  -0.1171325   0.4700114  -0.9841169   0.5520542
  -0.2290610   0.1702464   0.1711601   0.7375621  -0.1014551  -0.4377780
  -0.3230359   0.1585791   0.3375891  -0.3421177   0.1225098  -0.1924745
  -0.3541939  -0.6497301   0.6962032  -0.5688714  -1.1738377   1.8210169
  -0.0633139   0.1920878  -0.0505103  -0.2397669  -0.8969426   1.4689256
   0.5774909   0.5642834   0.8730685  -0.1362207   0.1504479  -0.1043702
  -0.8679280  -1.7139430  -1.1553111  -0.3056808   0.3958679   1.6099215
  -0.0220967  -0.1936586  -0.1546958   0.0071761   0.0392981   0.7663070
   0.2319039  -0.0493705   0.0114160  -0.2525044  -0.1236243  -0.0528005
   0.4347414   0.5695299  -0.4328802  -0.4867863  -0.4475280  -0.6483984
  -0.0231521  -0.1456962  -0.0370880  -1.0557843  -0.5876392  -0.9165909
   0.0832541   0.1229969  -1.4141488  -0.1530350   0.2321088  -0.0274727
   0.1848792   0.1647685   0.3367422  -0.3391750  -0.9696654   0.2787319
   0.0322857   0.4030090  -0.0176528  -0.4074326  -0.2785970   0.2622977
  -0.8135443  -0.9843550   1.0034307  -0.0538451   0.2460619   0.2527331
   0.0256107   0.0686002  -0.1327345  -0.2061094   0.2198767  -0.3646084
  -0.3553299  -0.1726505  -0.3241841   0.9022030  -0.4594504  -0.4405629
   0.5849551  -0.1610176  -1.1684929  -0.1369494  -0.1959082   0.1600406
  -0.3734814   0.9308608   0.0834560   0.1725393   0.6671772   0.9131915
  -0.5219827   0.1963932  -0.0255660  -0.0268423   0.2619424  -0.5400118
   0.6503416   0.0639099   1.1419964  -0.0301058  -0.0064787  -0.2448070
   0.6368725   0.3124681  -0.0848632   0.4990830   0.2478705  -0.4347226
   0.1135217   0.1075264   0.0518819   0.1457356  -1.6641599  -0.1206952
   0.6410137   0.7329294   0.6815674   0.0375914  -0.1125655   0.1870280
  -0.6151753  -0.3405768   0.0731532   0.5353825  -1.3216853   0.5826110
  -0.0987139  -0.1879035  -0.1144570  -0.4214842   0.1248287   0.4726190
  -0.9248473  -0.9273270  -0.7692452  -0.2329077  -0.2064153   0.2727692
   0.6285340  -0.1571654  -0.9484018   0.5989955  -0.4952232   1.5026398
  -0.2125477   0.3826922  -0.0600934   0.6744708   0.6545922  -0.3814253
  -0.3469012  -1.2250278  -0.1793400   0.0217902   0.0026687   0.0176122
   0.6538307  -1.2496143   0.2958026  -0.6643194  -0.8712762  -0.2283329
   0.2562277  -0.0724594  -0.0799083   1.3305669  -0.0954989   1.3073984
  -1.0708487   0.5592986  -0.2141217  -0.0716065  -0.1214424  -0.2825839
  -0.3707979   0.6405474  -1.8424623   1.6154053   0.2270775   1.1803949
  -0.0043908   0.1655045  -0.3652638   0.6053121   0.6372457  -0.9535812
  -0.5508655   0.8508019  -1.3952696   0.0953777   0.0654526  -0.2773303
  -0.1857670  -1.0958403  -0.5650216   0.6068669  -0.9793923   2.1611326
   0.0131096   0.2670197  -0.2151134   0.3856128  -0.2205110   0.7513951
   0.6867050  -0.3999130  -1.4962442  -0.0174538   0.4255866   0.3054554
  -0.8078687  -0.5636924  -1.0236765  -0.5596956  -0.3421951   1.0638340
   0.4109560   0.1283206  -0.1258611   0.3708990   1.2459320  -1.3966272
   0.2476223  -1.0161631   0.5399361  -0.1981116   0.2451060   0.1639020
   0.0757499   0.1239539   0.7839916   1.3915857   0.5092733  -0.3795150
  -0.2512470  -0.3206678   0.3203711  -1.0957275   0.8810603   0.6704444
  -0.1708489   0.3009214   1.0905218   0.0174262   0.1689410  -0.2791845
  -0.5755867  -0.1457577  -0.8852520   0.0376536   0.8188223  -0.1013181
  -0.5591417   0.0081854  -0.0213370   0.7220949  -0.6882838  -0.5354502
   0.0100208   0.1612269   0.0501101   0.1182627   0.1752422   0.2504767
  -0.9759286   1.0294428  -0.5010761   0.9360907   0.0551160   1.0691094
  -0.2392215  -0.3906091  -0.0752336  -0.4076492   0.4681250   1.1770442
   0.2537180  -0.6475418   1.0620271   0.2166392   0.1823297   0.0494875
   1.0374896  -0.4831593   0.3032489   0.7782557   0.9249881  -0.2883721
   0.0088163   0.1264081   0.3488603   0.6907952  -0.8344241  -0.8392130
  -0.8408883   0.0235426   0.2768779   0.2700063   0.1116456  -0.1177678
   0.1703126   0.3076225  -0.5519229  -1.1223275   0.7421802  -0.3939313
  -0.1204886   0.1019863   0.4125597  -0.4287409  -0.8625552  -0.5946985
   0.0859485   0.9386984   0.2509995  -0.1147164  -0.5435390   0.0450559
   0.5779402   0.4257219  -0.3482020   0.1949783   1.0332214  -0.0469532
   0.1764649  -0.4685016   0.3007579   0.9524382  -1.4593060  -0.3948595
   0.3574984   0.1416535  -0.3423881   0.2032333   0.0768465   0.2967262
   0.0927437   0.4052193   0.8031128   0.7353386  -0.1965905   0.3456466
   0.1056011  -0.3433788   0.0191436  -0.3848361   0.5296710   0.7524022
  -0.2530986   0.4031081   0.1576164   0.3140994  -0.0191714   0.1671528
  -0.0954087   0.0961683  -0.1784805   0.1809415   0.9440492  -0.2049247
   0.1795271  -0.1217358   0.1285556   0.3086470   0.5322120  -0.0229822
   1.8440418  -0.3001706   0.1647325  -0.0390647   0.2818644   0.0175869
  -1.0000668  -0.9882587  -0.0823363   0.5622670   0.1909492   0.6732563
   0.3419653  -0.2393965  -0.2728287   0.4792158  -0.0014590   1.6507800
  -0.2529426   0.0795360   1.1820893  -0.2503137  -0.2677234   0.1603394
  -0.8746170   0.6927110  -2.3046922   0.8046656   0.6053036  -0.0667845
   0.1043135  -0.1478159   0.0432081  -0.3851296  -0.8381197  -0.9481898
  -0.6162286  -0.9074510  -0.1185489  -0.1656550   0.4387288  -0.0934498
  -0.0700379  -0.4034566   0.2277293  -0.9342371  -0.0033013  -0.0064338
  -0.4672994  -0.1781403  -0.2348540  -0.1691329   0.9046744   0.1575758
   0.2237822  -0.9254342  -0.4678278  -0.2416697   0.1459470  -0.3285871
   0.7931852  -0.9782269   1.0508378   0.2657670   0.1737555  -0.8184999
  -0.0138349   0.2603174  -0.0486633   0.3798479   0.7573576   0.2060251
  -0.1818340   1.0100484   0.7671336  -0.3129590  -0.0105878  -0.3614454
  -0.5987911  -0.0868894   0.0348383   0.4579558   0.0651292   0.5608735
  -0.1481115  -0.1270241   0.2300860  -0.0579204  -0.1331966   0.3328298
   0.2050844  -0.6193207  -0.0240792  -0.0986306   0.1580910  -0.1226071
  -0.1262126  -0.9370159  -0.1386467   1.5599266  -1.1696367  -1.1301214
   0.1405520   0.2339656   0.2538766  -0.4438930  -2.0720337  -0.0808114
   0.7870843  -0.4529777  -0.9372940  -0.1051347  -0.4873060   0.1117754
   0.4435970  -1.1488318  -0.0132474  -0.4518477   0.3733142  -0.7856978
   0.2599684   0.0768341   0.0612156  -0.5573321  -0.1074475   0.6015796
  -0.2131462  -0.4004394   0.2449949  -0.0582563   0.1144261  -0.0587760
  -0.4766838   0.3080839   0.1302788  -1.2679332   0.5890651  -1.0433219
   0.3812520  -0.2440685  -0.2001728  -0.1534780   0.2783252   0.2168444
  -0.4275147   0.6359225  -0.8473614  -0.0005253   0.0784859  -0.2627053
  -0.7207911  -0.3942720  -0.4777398  -0.8860955   0.4620704   0.2780640
  -0.1395894   0.3383939  -0.0141605   0.5732580   0.1015431   0.1636788
  -0.1917393  -0.6179124  -0.1377157  -0.1089897   0.0398756  -0.3548087
  -0.2718231   0.2053452   0.3100759  -1.0388924  -0.6165753  -0.8332328
  -0.0310232   0.2520705  -0.0149570   0.4527513  -0.6500861   0.0784531
  -0.7213800   0.7123024   0.5261930  -0.1121096   0.1294584  -0.2552615
  -0.3411791  -0.9865190  -0.7938391  -0.3398292  -0.4825242  -0.9074217
   0.3125918   0.0434855   0.0460355   1.8466894   0.6932308  -0.1054208
  -1.2735505   1.8985067  -0.5639194  -0.4231877  -0.0687829  -0.1825942
   0.2616402  -0.4843538  -0.1840361  -0.3690230  -0.9508222  -0.2744677
   0.2096059   0.2629550   0.2703227  -0.4229715  -0.4622173  -0.3457979
  -0.2981196  -0.0469803   0.6699815   0.1163691   0.0125562  -0.0209666
  -1.0852271  -0.5364396   1.5955787  -0.5033231  -0.0456954  -0.5557362
  -0.1054590   0.1530413   0.2393919  -0.4752151   0.0308464  -0.0718234
  -0.5836528  -0.5051158  -1.1969572  -0.0635204  -0.3456733   0.0521955
  -0.1556401  -0.0687648   1.1159435   0.7815896   1.0740111   0.2871027
  -0.1897412  -0.1367144   0.6234351   0.8768141  -1.1518657  -0.0540539
   0.7862845  -0.0694499  -0.5146692  -0.0784383   0.0213668   0.3446470
  -0.7198040   0.4208020  -0.7963291  -0.4372806   0.2434216  -0.3066958
   0.2471483  -0.1228203  -0.3644600  -0.4294381   0.2324821  -1.2508168
   1.2157596   0.1858786  -0.6337336  -0.0006630   0.1942340  -0.3721532
   0.1323494   0.2861633  -0.7535019  -0.1893693  -0.6076008   0.0639505
   0.0498468  -0.0475619  -0.3266723  -0.0545989  -0.1042927  -0.0893854
  -0.4329503  -0.8511440   0.7748054   0.2169574  -0.3854233   0.2029165
   0.8719277   0.7726567   0.4009008  -1.0654086  -0.4031296   0.2697560
   0.1052508   0.0169084   0.4108797   1.0000202   1.4595578   1.0001822
  -0.4716345  -0.9491625   0.1469691   0.1261958   0.2800325  -0.1800636
  -0.5711860  -0.3918726   0.4752293   0.2332713  -0.7924325  -0.4415639
  -0.2977788  -0.0600265   0.3160294   0.3690128   0.7849030  -0.4432931
  -0.6351381  -0.1859072  -0.2396195   0.1616788   0.0318810   0.0278309
   1.2469655   0.8554266  -0.9006053   0.0144866   1.2790924   0.8053513
   0.0942653  -0.3127398   0.0686232   0.3552604   1.0235170  -0.4705137
  -0.0957824   0.0635925  -0.5728794  -0.0171280   0.0609390  -0.0763881
   1.2820152  -0.9404625   0.2190815  -0.3749437  -0.7155221   0.2138436
  -0.2793716  -0.0522500  -0.4045318   1.1237929  -0.1143565   1.8779623
   0.9186231  -0.3422908  -0.3341475   0.0697855  -0.1014490   0.3623231
  -0.5071244  -0.1623336  -0.7742617   0.8680090   1.1115597  -0.3482292
   0.2269239   0.0888177   0.0319280  -1.0674750   0.7511422   0.6341567
  -0.5804206   0.3369494  -1.1753566  -0.0344531   0.0134039  -0.2431160
  -0.9960805   0.3313665  -0.2604841   0.0340289  -1.2839291   0.8113524
   0.0396871  -0.0433141   0.0590356  -0.0407723  -0.7445253  -1.2509841
   0.3135362   0.5360766   0.1889145  -0.1762270  -0.1119490   0.1053074
   2.1923720   1.1061653  -0.1701810   1.2664099  -0.2113063   0.0538939
  -0.1286935   0.0213660  -0.4395808   0.8329309   0.5810626  -1.2256191
   0.5000371   0.0309336   0.8078625   0.0755990  -0.0322268  -0.0744798
   0.7658396   0.9310816  -1.4157746   1.1068167   0.8876899   0.2225775
   0.1304606  -0.2403088  -0.1264090   0.8174879   0.6937332   0.6720727
   0.9982909   0.6968704  -0.4319723  -0.2683708   0.0797234  -0.1569627
  -0.2999932   0.6030726  -0.5762308  -0.4457353  -1.0010693   0.0337687
   0.1655867   0.1965486   0.2071146   0.8389661   0.4868641   0.5993047
   1.5670436  -0.5636754   1.0391850  -0.2223813   0.4465704  -0.0636276
   0.5965173  -0.2489991   0.0449696   1.2395566   0.5103485  -0.7859826
  -0.1665934   0.0462465  -0.1361337  -0.4560269   1.3701817  -1.0935424
   0.8883363   0.3321243  -0.9124706   0.1230070   0.1531207   0.0199711
  -0.0478761   0.4038744  -0.2119482   1.1820804  -0.0906142  -1.1679139
  -0.0250942  -0.2421714  -0.0379530  -0.1512377  -0.7231568   1.1208765
  -0.0828198   0.2774117  -1.4962862  -0.0564457   0.4556761  -0.1197471
  -0.4234741   0.3451983  -0.4583016   2.5621836   0.7620931  -0.7026755
  -0.0620650   0.2142818  -0.1230086   0.0697275   1.5406095  -1.3886520
  -0.0321859   0.6917071  -0.9626227   0.1810667   0.1674608  -0.2489363
  -1.6533736   0.7291551   0.2645980  -0.6180464   0.8506643   0.1867060
   0.1253061   0.0067544   0.1347775   0.3332032  -1.3948368   0.8473296
  -1.1245388  -0.3092290   0.4390875   0.1096287   0.1621182   0.1764142
  -0.5476819   0.4125181   0.1116195   0.7803686  -0.1466926   0.7866972
   0.1279478  -0.2458811   0.2979308   2.4747139  -0.0824237  -0.2108411
   0.2612218   0.6522073   0.1936259  -0.2163010  -0.4610867  -0.0693704
  -0.7884760   0.3998307  -1.2486364  -0.2913469   1.1524863   0.4933526
   0.2872735   0.0373502  -0.3523892   0.0751518   0.2758417   0.2556511
  -1.1262424  -0.7529384  -0.1212100  -0.1769115   0.1673034  -0.2988434
   1.4072349  -0.2846770   0.1546805  -0.9808979   0.0902215  -0.2708925
  -0.1436223   0.0821625   0.1927985   0.4002530   0.2933298  -2.2152651
   0.4390974   0.6374487   0.6124150   0.3108634   0.2138931   0.3138359
   0.4588486   0.7908340  -0.1946226   0.4133142  -0.3234889   1.4437661
   0.4280051   0.4673043  -0.0428092   0.5737245   0.1510213   0.1721990
   0.5480859   1.1120405  -1.4843750   0.0848416  -0.3113802  -0.1357666
   0.4907731   0.2021580  -1.3706699   0.4628987   1.0791918  -1.7543253
   0.0468999   0.2580301  -0.0578210   0.4879018  -0.4890032  -0.8748874
  -0.5062167   1.2201913  -1.1168630   0.2436013   0.1357532  -0.2509344
   0.6896288   0.5882290  -1.0629307  -1.1014918  -0.7310044  -0.2636372
  -0.1073440   0.0391029  -0.1161471  -1.1982884  -1.5028837  -0.5071542
  -0.2056778  -0.2033954   0.7190181  -0.0197793   0.0516635   0.0373212
   0.5931511  -0.8970582  -0.7007782  -2.0646766   0.5922161   0.0649262
  -0.0591320  -0.2581029   0.0711009   0.7345621   0.8089842  -0.0810737
  -0.7398328  -0.3619364  -0.2508345  -0.1567691  -0.1934616  -0.0766253
   0.0346721  -1.3849996   0.3020740  -0.0306560  -0.1234633   0.1603766
   0.0338809   0.1785461  -0.0526763  -0.4010845   0.5525284   0.6434400
  -0.2729752   0.8264660  -0.0685792  -0.0360533   0.0493885  -0.1352060
  -0.0935313  -0.4888780   0.2772310   0.2750717   0.4951573  -0.3248878
  -0.0274314  -0.0363530  -0.1697611   0.8869993   0.1005974   0.0069142
   0.2569401   0.0856749  -0.5336080  -0.1375972   0.2784098   0.0402222
  -0.7520108  -0.4184118   1.5303742   0.7647896  -0.5140395  -0.5984321
   0.0622089   0.1759175  -0.0963486   1.3788413  -0.5461364  -0.7100556
  -0.0922187  -0.3333362  -0.1927389  -0.1109022   0.1423356   0.0448491
  -0.0673092  -1.0360369  -0.4263525   1.4162133  -0.6620110   0.3136686
   0.0259325   0.0272855   0.1157460  -0.1523264  -0.9778148  -0.0845948
  -0.4498782  -0.5023057   0.1957961  -0.0525115  -0.0933686  -0.3338283
  -0.5446297  -1.3365867  -0.1683719  -0.1058201  -0.1573700  -0.5665089
  -0.1009474  -0.1224694   0.1536087  -0.5941528  -2.2413883   0.5897601
   0.2480844  -0.1238416  -0.0031254  -0.1957935  -0.0735962  -0.1422661
   0.0364934  -0.4521971   0.2574576  -0.0686101   0.3946115   1.3669518
  -0.1986456  -0.0453189   0.0844168  -0.0102857  -1.9995729  -0.0827703
   0.6136245   0.0948254   0.8541481   0.4217243   0.0139571   0.2132353
   0.9449374   0.2758001   0.7027986  -1.0198626  -1.0065673   0.6342129
  -0.1150075   0.0274626  -0.2188446  -0.2314928   1.2586924  -0.3091417
   0.7265339   0.9376538  -0.3676060   0.0517166  -0.1244990   0.1731431
  -0.3350773   0.0373067   0.2595417   0.5112142   0.1266124  -0.8843126
   0.1072800   0.0389375   0.2389377  -0.4421205  -0.2655521  -0.7135660
  -0.0962449   0.1377241   0.0420947   0.0528696  -0.2399323  -0.1905164
   0.6628313  -0.9256990   1.7086946  -1.3919458   0.2421486   0.8789014
  -0.4035446  -0.0427881   0.0098960   0.0112419  -0.2998869   0.0641127
  -1.0516470   0.4272449   0.0519094   0.1119013  -0.1043561  -0.0135774
  -1.2520060  -0.1226108  -1.3377819   0.3091107  -0.1144634   0.3393750
   0.0240060  -0.3194408   0.1046853  -0.4962190   1.2243865   0.0581092
   0.3772368   0.2648436   0.9306448  -0.1947603  -0.1468188   0.1166461
   0.1056211  -0.5607194  -0.1868243   0.8098503  -0.4396821   0.1611991
  -0.2707326   0.0502959  -0.1082289   0.4963205   0.3491428  -0.2208450
   0.0814198   0.5282990  -1.1507560  -0.1086724   0.0465420  -0.0990900
  -0.2603529  -0.3683336   1.2560308   0.9456013  -1.1398531   0.6510943
   0.0367827  -0.4359561  -0.1022199  -0.0530773   1.1684460   0.0668698
   0.4102209  -0.4559718  -0.0262735  -0.1369059  -0.2683235  -0.2745659
   0.5839963  -0.5904453   0.1088442   0.5308455  -1.1434122  -0.6154744
  -0.1503182   0.2762259  -0.4674801   0.8028408   0.3832789   0.1147310
   0.1032965  -0.7194921  -0.7413937   0.3095368   0.1473939   0.3010352
   0.6315392  -0.1511612   0.0091496  -1.1345162   1.0394166  -0.7700693
  -0.1826986   0.1298730  -0.0763780  -0.1322951   0.9531895   0.6689569
   0.9433026  -0.1635915   0.3505770  -0.0934598   0.0154987   0.2676077
  -0.2985749  -1.2580013  -0.2130321  -0.0859240  -0.5297380   1.4377307
   0.1272019  -0.2568577   0.0344774  -1.0550622   0.3651301  -0.1223320
  -1.0458676   0.3835022   0.0126165   0.0419939   0.1569639   0.1167509
  -0.3878437   0.2168923   0.6402588   0.6330788  -0.2708590  -1.0597955
   0.7298034   0.3122982  -0.1213609   0.6814267  -0.5182018  -0.5982574
  -0.2479540  -0.9003616   0.8266174   0.0089909   0.3423504   0.0925299
  -0.9274308  -0.1121665  -0.6454006  -0.2966209  -1.4255502   0.8216517
  -0.0306368   0.3824299   0.1810737  -0.6826644  -0.3654617  -0.5374925
   0.4052831  -0.3683796   1.0731457   0.0082116  -0.1846052   0.0944551
  -0.9681668  -0.1846297   0.6116072  -0.6943042   1.0162068   0.1099126
   0.0743258  -0.1685744   0.4111945   0.3655088  -0.0941922   0.5337729
   0.0991449   0.1979682   0.1712926   0.0853812  -0.0879105  -0.1690976
  -0.7678813  -1.8409704   0.6230509   0.1136108  -0.8773538  -0.5427452
  -0.1784274   0.0033763   0.3357913  -0.4925603  -0.4892671  -0.9571352
   0.6003380  -1.0404968   1.0693105   0.0383711  -0.2801682   0.1184837
   1.3128013   1.0153638  -1.1350107   0.0225918  -0.7798200   0.6566074
   0.1958184  -0.4363551   0.1931775  -0.0800741  -0.5275358  -0.6307241
  -0.2943351   1.2230630  -0.1517502  -0.2009573   0.0251710   0.0558706
  -0.1898655   0.1167998   1.3685900  -0.7812869  -0.9714357   0.4794229
   0.3351557   0.1227411  -0.0207894   1.1271852  -0.3657814   0.4926874
   0.4161433   1.0135107  -0.1424946  -0.0857467  -0.0432928   0.0777340
  -0.2320992   1.8595993  -1.2317009  -0.5724450  -0.3832482   0.1338446
  -0.0011490   0.2971731   0.1589309   0.6227418   0.2439731  -0.9358119
   0.6825365  -0.5338469  -1.1179020   0.0643290  -0.1302368  -0.3123724
  -0.1948564   0.5759417   0.0020290   1.8261399  -0.9172716   0.2085720
  -0.1094489   0.1225843   0.1410552  -0.7450472  -0.6850433  -0.9675561
   1.8623871  -0.5688970   0.1057479   0.0874421  -0.0124657  -0.1375381
  -0.0635271   0.4813130  -1.2973912  -0.5028451  -0.0259141  -0.4763317
  -0.0835021  -0.3834062  -0.0055513   1.4104717  -0.2060288  -0.0480906
   0.4609044  -0.1892235   0.8228905  -0.1945452   0.0151909  -0.0812082
   0.9608997   0.6647330  -0.8568791  -0.5126121   0.8255228  -1.6099186
   0.1507750  -0.0392754   0.3768492   0.6762145   0.3996479   0.0851632
  -0.2610045   0.0901349   0.4994516   0.1356860  -0.0437412  -0.2188722
  -0.4737235   0.5448803   0.6330430   0.3915653   1.4106764  -0.4205408
  -0.0897239   0.2492344  -0.3417233  -1.0207734   0.9610724   1.4861240
   0.9663774   0.7003940  -0.6720913   0.3721012   0.1250981  -0.1900335
  -1.0727053   1.2080859   0.7399376  -0.1468890  -0.4849307  -0.5416254
  -0.0490186   0.0832728   0.1082262  -0.9669365   0.0912873   0.2123915
  -0.4011375  -0.0902896  -0.9990827   0.0707106   0.1445260  -0.1665581
  -0.5804755   0.5116940  -0.3357370  -0.5835064  -1.2788866  -1.1963760
   0.0352696   0.1044520  -0.2794234  -0.3796511  -0.1907791   0.3607867
  -0.8151439   1.0243946   0.5029357  -0.0309601  -0.0219747  -0.2246215
   0.1080674  -0.0452040   0.0124913  -0.8032433  -1.5156359   1.1253040
  -0.2511605   0.0142829  -0.1150838   1.6156303  -0.6434689   0.2317964
  -0.8207131   0.1684892   0.4514168   0.0776741  -0.1195063  -0.3047221
   1.6635827  -1.3034121   0.5941806  -0.8643901  -0.3146893   0.2519881
  -0.2769813  -0.0118780  -0.0339752  -0.7464701  -0.4889450  -0.7310491
   0.2474560   0.6515671  -0.0942264  -0.2731029   0.0532172   0.1013858
   1.9660131   0.3977329   1.1897410   0.4864717   0.5700855   0.5942910
  -0.0876590  -0.0902869  -0.0938232   0.7722408  -0.2502296  -0.5411434
  -0.9292222   0.3387364   0.3552770   0.0217057  -0.2148426   0.0670237
   0.9511001   0.9196188  -0.9109242  -0.0895100  -0.1891561   0.0608076
   0.6132484   0.1005543  -0.2283996   0.2205756   0.4210321  -0.7480068
   0.1644819   1.1371250  -0.2157200   0.1824854   0.2821971   0.1558212
   0.2445529  -0.7481761   0.9719714   0.1586998   0.7291991   0.4296346
  -0.3277438  -0.0408419   0.0823368  -0.2573974  -0.7333876  -0.2323600
  -0.8522625  -1.0943916   0.1865822  -0.0117127  -0.1878240  -0.1836703
  -0.5564913  -0.9716666  -1.4606231  -0.6837872   0.1953150   0.2714180
   0.0899804  -0.1946698  -0.1273122  -0.3079833  -1.3438187  -0.0757822
  -0.5908287   0.1911480  -0.2128222  -0.1473468  -0.3041329  -0.1046139
  -0.7286862   1.0602267   0.3746089   0.8930574  -1.3157749  -0.9948922
   0.1578508   0.0022699   0.0911291   1.1336945   0.5695745   0.4971567
  -0.2950829  -0.8658973   0.1990575  -0.1651413  -0.0827806   0.0648770
  -0.7775794   0.0900225   0.4969693   0.4104015  -0.2053917  -0.0041709
   0.3223195   0.0871521   0.1420047  -0.9513573   0.4013339   1.5172357
  -0.5772418   0.9637472   0.6572784  -0.2740721  -0.0540249  -0.1711665
  -0.7452243   0.1003152   0.0841179   2.0162686   0.7426546   0.9608212
  -0.1408198  -0.0294117   0.2928899   0.3900514  -0.1252070  -1.1842455
  -0.1346771  -0.0977539   0.0762234   0.0033304  -0.0888193   0.1023864
  -1.6318548   0.8158804  -0.9932893   0.6605078   0.0376394  -0.1665935
   0.1006124   0.2196112   0.6142122  -0.5287959  -0.2027146   0.4015844
   0.3856027   0.7529403  -0.0294950   0.2509842   0.2790171   0.3696808
  -0.3611957  -1.9791453   0.3985175   1.2517605  -0.2113780  -1.9370807
  -0.0235216  -0.0451399  -0.0427966   0.5412570   0.3825897   0.1371656
   0.9606241  -0.0969761   0.7955814  -0.0942238   0.0859438  -0.2264058
  -0.7155989   1.0628854  -2.0677616  -0.5417091   0.6596391   1.2700474
  -0.1593762  -0.0315588  -0.0879841   0.8889454   0.7305681   0.4823117
  -0.8710625   0.5206265  -1.2004123  -0.0810147  -0.0472600   0.1760694
   1.1632440   0.5090894   1.1474896   0.9086657  -0.1033521   0.2463020
  -0.1730624  -0.0035745   0.2807137  -0.3749550  -0.1577379  -0.0533760
  -0.0121653  -0.6971530  -0.1608596   0.5449859  -0.1054190  -0.0032056
  -0.6650968   1.0162955   1.3942234  -0.3647269   0.0638906   0.7851033
   0.2223634  -0.1104751  -0.0093210   0.9546266  -0.3769995   0.9526231
  -0.0614243  -0.1386634  -0.9758394  -0.1317990   0.1247641   0.0355866
   0.6401621  -0.8253785  -0.5548192   0.3624886  -0.3604839   0.4052304
   0.1393495  -0.1475560  -0.0500173  -0.8210716   1.5111072  -1.3177362
   0.5764366   0.8174472  -0.6736563  -0.0019949   0.2399073  -0.2907198
   0.7779213  -0.4521106  -0.2291892   0.3857546   1.1361693  -0.5309139
  -0.1475948   0.1168489  -0.1256090   0.6402065  -0.1979688   1.0580472
   0.8985999   1.5386062   0.5969812   0.1880609  -0.2173639   0.0139979
   0.9587741   0.0157622  -1.1141453   0.0736589   1.3884968  -0.5675202
  -0.1972045   0.0448596   0.0614293   0.7085989   0.5491500  -1.1451403
   1.1972422   0.9676911  -0.5764605  -0.1927720   0.1244770   0.0810050
  -0.4562886  -1.3690001  -0.8941187  -0.6094931  -0.2571895  -0.0318839
   0.1505399  -0.1905679  -0.0863296  -0.4823430   0.1120380   0.8282803
   0.3432797   0.4033290  -1.0202763  -0.0581103   0.1634339  -0.2894600
   0.6591601  -1.2987585  -0.5597035   0.2853291   1.6119902   0.7562846
   0.1002526   0.1857174   0.3070504  -0.3534736  -0.0064649  -0.4230520
   0.5963338   0.1689376   0.2024417  -0.1065379   0.1039736   0.2227521
   0.6850226  -0.5723790   0.2105428   0.1466719   1.1276351   0.8731696
   0.0442582  -0.0878767  -0.0119188   0.0475264  -0.6365777   0.4228592
  -0.0762429   1.0014468   0.1417683  -0.2143705  -0.3281600   0.1211346
  -0.4271466   0.6793325   0.2749155  -0.0351294  -0.3555156  -0.1443941
   0.1281461   0.1086337  -0.0954446  -1.2440590  -0.9757977  -0.4633929
  -0.6349142   0.9264821  -0.8208049  -0.0460671  -0.4189867   0.3695151
  -0.5572219   0.2780953   0.7521601   0.3622525  -1.5136923  -1.1157133
   0.2475586  -0.1920910   0.0422696   0.8663099  -0.5158241   0.0063823
   0.5709052  -0.9533914  -0.3284090   0.3374660   0.0886103  -0.0342465
   1.6136280   0.8077587  -0.2761360  -0.0617289  -0.3033826   0.0306957
   0.0454180   0.0767556   0.0630159  -1.4364281  -0.5858383  -0.8379478
   0.6213268  -0.7161526  -1.1311057   0.1680589  -0.2215341  -0.0096898
   0.6158544  -0.2307422  -0.1369495  -1.4637953   0.8157368   1.7626577
   0.1361658   0.1873726  -0.1747658  -0.4961792  -0.7493673  -0.8631844
  -0.0769784   0.7298550  -0.7980704   0.1276348  -0.2603106   0.0300855
  -0.4122556  -1.1264320  -0.0793565   0.2009898  -0.2696987   1.6980318
   0.2873358   0.1249060   0.4689031   0.7660102   0.2095396  -0.3448562
  -0.2087664   0.1061026  -0.0342177  -0.0188490  -0.1383043   0.1357954
  -0.8636379   0.4298779   0.1539895  -0.7460674   0.5034498  -1.1857537
  -0.2772005   0.1095186  -0.0889170  -0.3170608  -0.3528876   0.4984073
   0.2037020  -0.1818302  -1.1582324  -0.0040783  -0.1226119  -0.1016384
  -1.0712723   0.2515405  -0.3870031   0.7276565  -0.7699968  -0.6172357
   0.0764153  -0.1197222  -0.1006449   0.5767408  -0.6999495   0.3105474
  -1.1713692   0.3764739   0.2877220  -0.0696251  -0.0689772   0.0058481
   0.7349360   0.5549945  -0.4088046  -1.7164767   0.2636388   0.4070669
   0.0816642   0.0315196   0.1753116  -0.1741476   0.7797915   0.2010548
   0.0755760  -0.8773316  -0.0460081  -0.0348109  -0.1491080   0.0197282
   1.0431318   0.1652092   0.1087342   0.5331643  -0.5939399  -1.2986878
   0.2157313  -0.0449300  -0.4040108   1.3492815   0.2768640   0.2020856
   0.2850150  -0.0915112   0.7563730  -0.3082986  -0.0651119   0.1563933
   0.2325966   1.0624809  -0.5085615  -0.2117309   0.3226352   0.4187502
   0.0781633   0.1488901  -0.1953434   0.5969358   0.3709968  -0.3635454
   0.0058647   0.6506371  -0.1751022
  79.5657363  79.5657363  79.5657363 109.4712190 109.4712190 109.4712190
